v 0.10000000000000001 eval {set sim_annotation {Time: 0.1 SMTP Traffic from Node 0 to Node 1 ..}}
+ 0.11921 0 1 exp 100 ------- 0 0.0 1.0 0 0
- 0.11921 0 1 exp 100 ------- 0 0.0 1.0 0 0
r 0.12061 0 1 exp 100 ------- 0 0.0 1.0 0 0
+ 0.12721 0 1 exp 100 ------- 0 0.0 1.0 1 1
- 0.12721 0 1 exp 100 ------- 0 0.0 1.0 1 1
r 0.12861 0 1 exp 100 ------- 0 0.0 1.0 1 1
+ 0.13521 0 1 exp 100 ------- 0 0.0 1.0 2 2
- 0.13521 0 1 exp 100 ------- 0 0.0 1.0 2 2
r 0.13661 0 1 exp 100 ------- 0 0.0 1.0 2 2
+ 0.14321 0 1 exp 100 ------- 0 0.0 1.0 3 3
- 0.14321 0 1 exp 100 ------- 0 0.0 1.0 3 3
r 0.14461 0 1 exp 100 ------- 0 0.0 1.0 3 3
+ 0.15121 0 1 exp 100 ------- 0 0.0 1.0 4 4
- 0.15121 0 1 exp 100 ------- 0 0.0 1.0 4 4
r 0.15261 0 1 exp 100 ------- 0 0.0 1.0 4 4
+ 0.169348 0 1 exp 100 ------- 0 0.0 1.0 5 5
- 0.169348 0 1 exp 100 ------- 0 0.0 1.0 5 5
r 0.170748 0 1 exp 100 ------- 0 0.0 1.0 5 5
+ 0.177348 0 1 exp 100 ------- 0 0.0 1.0 6 6
- 0.177348 0 1 exp 100 ------- 0 0.0 1.0 6 6
r 0.178748 0 1 exp 100 ------- 0 0.0 1.0 6 6
+ 0.185348 0 1 exp 100 ------- 0 0.0 1.0 7 7
- 0.185348 0 1 exp 100 ------- 0 0.0 1.0 7 7
r 0.186748 0 1 exp 100 ------- 0 0.0 1.0 7 7
+ 0.193348 0 1 exp 100 ------- 0 0.0 1.0 8 8
- 0.193348 0 1 exp 100 ------- 0 0.0 1.0 8 8
r 0.194748 0 1 exp 100 ------- 0 0.0 1.0 8 8
+ 0.201348 0 1 exp 100 ------- 0 0.0 1.0 9 9
- 0.201348 0 1 exp 100 ------- 0 0.0 1.0 9 9
r 0.202748 0 1 exp 100 ------- 0 0.0 1.0 9 9
+ 0.209348 0 1 exp 100 ------- 0 0.0 1.0 10 10
- 0.209348 0 1 exp 100 ------- 0 0.0 1.0 10 10
r 0.210748 0 1 exp 100 ------- 0 0.0 1.0 10 10
+ 0.217348 0 1 exp 100 ------- 0 0.0 1.0 11 11
- 0.217348 0 1 exp 100 ------- 0 0.0 1.0 11 11
r 0.218748 0 1 exp 100 ------- 0 0.0 1.0 11 11
+ 0.247751 0 1 exp 100 ------- 0 0.0 1.0 12 12
- 0.247751 0 1 exp 100 ------- 0 0.0 1.0 12 12
r 0.249151 0 1 exp 100 ------- 0 0.0 1.0 12 12
+ 0.255751 0 1 exp 100 ------- 0 0.0 1.0 13 13
- 0.255751 0 1 exp 100 ------- 0 0.0 1.0 13 13
r 0.257151 0 1 exp 100 ------- 0 0.0 1.0 13 13
+ 0.263751 0 1 exp 100 ------- 0 0.0 1.0 14 14
- 0.263751 0 1 exp 100 ------- 0 0.0 1.0 14 14
r 0.265151 0 1 exp 100 ------- 0 0.0 1.0 14 14
+ 0.271751 0 1 exp 100 ------- 0 0.0 1.0 15 15
- 0.271751 0 1 exp 100 ------- 0 0.0 1.0 15 15
r 0.273151 0 1 exp 100 ------- 0 0.0 1.0 15 15
+ 0.279751 0 1 exp 100 ------- 0 0.0 1.0 16 16
- 0.279751 0 1 exp 100 ------- 0 0.0 1.0 16 16
r 0.281151 0 1 exp 100 ------- 0 0.0 1.0 16 16
+ 0.287751 0 1 exp 100 ------- 0 0.0 1.0 17 17
- 0.287751 0 1 exp 100 ------- 0 0.0 1.0 17 17
r 0.289151 0 1 exp 100 ------- 0 0.0 1.0 17 17
+ 0.295751 0 1 exp 100 ------- 0 0.0 1.0 18 18
- 0.295751 0 1 exp 100 ------- 0 0.0 1.0 18 18
r 0.297151 0 1 exp 100 ------- 0 0.0 1.0 18 18
+ 0.303751 0 1 exp 100 ------- 0 0.0 1.0 19 19
- 0.303751 0 1 exp 100 ------- 0 0.0 1.0 19 19
r 0.305151 0 1 exp 100 ------- 0 0.0 1.0 19 19
+ 0.311751 0 1 exp 100 ------- 0 0.0 1.0 20 20
- 0.311751 0 1 exp 100 ------- 0 0.0 1.0 20 20
r 0.313151 0 1 exp 100 ------- 0 0.0 1.0 20 20
+ 0.328688 0 1 exp 100 ------- 0 0.0 1.0 21 21
- 0.328688 0 1 exp 100 ------- 0 0.0 1.0 21 21
r 0.330088 0 1 exp 100 ------- 0 0.0 1.0 21 21
+ 0.336688 0 1 exp 100 ------- 0 0.0 1.0 22 22
- 0.336688 0 1 exp 100 ------- 0 0.0 1.0 22 22
r 0.338088 0 1 exp 100 ------- 0 0.0 1.0 22 22
+ 0.344688 0 1 exp 100 ------- 0 0.0 1.0 23 23
- 0.344688 0 1 exp 100 ------- 0 0.0 1.0 23 23
r 0.346088 0 1 exp 100 ------- 0 0.0 1.0 23 23
+ 0.352688 0 1 exp 100 ------- 0 0.0 1.0 24 24
- 0.352688 0 1 exp 100 ------- 0 0.0 1.0 24 24
r 0.354088 0 1 exp 100 ------- 0 0.0 1.0 24 24
+ 0.360688 0 1 exp 100 ------- 0 0.0 1.0 25 25
- 0.360688 0 1 exp 100 ------- 0 0.0 1.0 25 25
r 0.362088 0 1 exp 100 ------- 0 0.0 1.0 25 25
+ 0.368688 0 1 exp 100 ------- 0 0.0 1.0 26 26
- 0.368688 0 1 exp 100 ------- 0 0.0 1.0 26 26
r 0.370088 0 1 exp 100 ------- 0 0.0 1.0 26 26
+ 0.376688 0 1 exp 100 ------- 0 0.0 1.0 27 27
- 0.376688 0 1 exp 100 ------- 0 0.0 1.0 27 27
r 0.378088 0 1 exp 100 ------- 0 0.0 1.0 27 27
+ 0.542255 0 1 exp 100 ------- 0 0.0 1.0 28 28
- 0.542255 0 1 exp 100 ------- 0 0.0 1.0 28 28
r 0.543655 0 1 exp 100 ------- 0 0.0 1.0 28 28
+ 0.550255 0 1 exp 100 ------- 0 0.0 1.0 29 29
- 0.550255 0 1 exp 100 ------- 0 0.0 1.0 29 29
r 0.551655 0 1 exp 100 ------- 0 0.0 1.0 29 29
+ 0.558255 0 1 exp 100 ------- 0 0.0 1.0 30 30
- 0.558255 0 1 exp 100 ------- 0 0.0 1.0 30 30
r 0.559655 0 1 exp 100 ------- 0 0.0 1.0 30 30
+ 0.566255 0 1 exp 100 ------- 0 0.0 1.0 31 31
- 0.566255 0 1 exp 100 ------- 0 0.0 1.0 31 31
r 0.567655 0 1 exp 100 ------- 0 0.0 1.0 31 31
+ 0.574255 0 1 exp 100 ------- 0 0.0 1.0 32 32
- 0.574255 0 1 exp 100 ------- 0 0.0 1.0 32 32
r 0.575655 0 1 exp 100 ------- 0 0.0 1.0 32 32
+ 0.582255 0 1 exp 100 ------- 0 0.0 1.0 33 33
- 0.582255 0 1 exp 100 ------- 0 0.0 1.0 33 33
r 0.583655 0 1 exp 100 ------- 0 0.0 1.0 33 33
+ 0.590255 0 1 exp 100 ------- 0 0.0 1.0 34 34
- 0.590255 0 1 exp 100 ------- 0 0.0 1.0 34 34
r 0.591655 0 1 exp 100 ------- 0 0.0 1.0 34 34
+ 0.598255 0 1 exp 100 ------- 0 0.0 1.0 35 35
- 0.598255 0 1 exp 100 ------- 0 0.0 1.0 35 35
r 0.599655 0 1 exp 100 ------- 0 0.0 1.0 35 35
+ 0.606255 0 1 exp 100 ------- 0 0.0 1.0 36 36
- 0.606255 0 1 exp 100 ------- 0 0.0 1.0 36 36
r 0.607655 0 1 exp 100 ------- 0 0.0 1.0 36 36
+ 0.614255 0 1 exp 100 ------- 0 0.0 1.0 37 37
- 0.614255 0 1 exp 100 ------- 0 0.0 1.0 37 37
r 0.615655 0 1 exp 100 ------- 0 0.0 1.0 37 37
+ 0.622255 0 1 exp 100 ------- 0 0.0 1.0 38 38
- 0.622255 0 1 exp 100 ------- 0 0.0 1.0 38 38
r 0.623655 0 1 exp 100 ------- 0 0.0 1.0 38 38
+ 0.738917 0 1 exp 100 ------- 0 0.0 1.0 39 39
- 0.738917 0 1 exp 100 ------- 0 0.0 1.0 39 39
r 0.740317 0 1 exp 100 ------- 0 0.0 1.0 39 39
+ 0.746917 0 1 exp 100 ------- 0 0.0 1.0 40 40
- 0.746917 0 1 exp 100 ------- 0 0.0 1.0 40 40
r 0.748317 0 1 exp 100 ------- 0 0.0 1.0 40 40
+ 0.754917 0 1 exp 100 ------- 0 0.0 1.0 41 41
- 0.754917 0 1 exp 100 ------- 0 0.0 1.0 41 41
r 0.756317 0 1 exp 100 ------- 0 0.0 1.0 41 41
+ 0.805859 0 1 exp 100 ------- 0 0.0 1.0 42 42
- 0.805859 0 1 exp 100 ------- 0 0.0 1.0 42 42
r 0.807259 0 1 exp 100 ------- 0 0.0 1.0 42 42
+ 0.932008 0 1 exp 100 ------- 0 0.0 1.0 43 43
- 0.932008 0 1 exp 100 ------- 0 0.0 1.0 43 43
r 0.933408 0 1 exp 100 ------- 0 0.0 1.0 43 43
+ 0.940008 0 1 exp 100 ------- 0 0.0 1.0 44 44
- 0.940008 0 1 exp 100 ------- 0 0.0 1.0 44 44
r 0.941408 0 1 exp 100 ------- 0 0.0 1.0 44 44
+ 0.948008 0 1 exp 100 ------- 0 0.0 1.0 45 45
- 0.948008 0 1 exp 100 ------- 0 0.0 1.0 45 45
r 0.949408 0 1 exp 100 ------- 0 0.0 1.0 45 45
+ 0.956008 0 1 exp 100 ------- 0 0.0 1.0 46 46
- 0.956008 0 1 exp 100 ------- 0 0.0 1.0 46 46
r 0.957408 0 1 exp 100 ------- 0 0.0 1.0 46 46
+ 0.964008 0 1 exp 100 ------- 0 0.0 1.0 47 47
- 0.964008 0 1 exp 100 ------- 0 0.0 1.0 47 47
r 0.965408 0 1 exp 100 ------- 0 0.0 1.0 47 47
+ 0.972008 0 1 exp 100 ------- 0 0.0 1.0 48 48
- 0.972008 0 1 exp 100 ------- 0 0.0 1.0 48 48
r 0.973408 0 1 exp 100 ------- 0 0.0 1.0 48 48
+ 0.980008 0 1 exp 100 ------- 0 0.0 1.0 49 49
- 0.980008 0 1 exp 100 ------- 0 0.0 1.0 49 49
r 0.981408 0 1 exp 100 ------- 0 0.0 1.0 49 49
+ 0.988008 0 1 exp 100 ------- 0 0.0 1.0 50 50
- 0.988008 0 1 exp 100 ------- 0 0.0 1.0 50 50
r 0.989408 0 1 exp 100 ------- 0 0.0 1.0 50 50
+ 0.996008 0 1 exp 100 ------- 0 0.0 1.0 51 51
- 0.996008 0 1 exp 100 ------- 0 0.0 1.0 51 51
r 0.997408 0 1 exp 100 ------- 0 0.0 1.0 51 51
+ 1 2 3 cbr 50 ------- 0 2.0 3.0 0 52
- 1 2 3 cbr 50 ------- 0 2.0 3.0 0 52
v 1 eval {set sim_annotation {Time: 1.0 CBR Traffic from Node 2 to Node 3 ..}}
r 1.0104 2 3 cbr 50 ------- 0 2.0 3.0 0 52
+ 2 1 6 tcp 40 ------- 0 1.1 6.0 0 53
- 2 1 6 tcp 40 ------- 0 1.1 6.0 0 53
v 2 eval {set sim_annotation {Time: 2.0 FTP Traffic from Node 1 to Node 6..}}
r 2.010107 1 6 tcp 40 ------- 0 1.1 6.0 0 53
+ 2.010107 6 1 ack 40 ------- 0 6.0 1.1 0 54
- 2.010107 6 1 ack 40 ------- 0 6.0 1.1 0 54
r 2.020213 6 1 ack 40 ------- 0 6.0 1.1 0 54
+ 2.020213 1 6 tcp 1040 ------- 0 1.1 6.0 1 55
- 2.020213 1 6 tcp 1040 ------- 0 1.1 6.0 1 55
+ 2.020213 1 6 tcp 1040 ------- 0 1.1 6.0 2 56
- 2.022987 1 6 tcp 1040 ------- 0 1.1 6.0 2 56
r 2.032987 1 6 tcp 1040 ------- 0 1.1 6.0 1 55
+ 2.032987 6 1 ack 40 ------- 0 6.0 1.1 1 57
- 2.032987 6 1 ack 40 ------- 0 6.0 1.1 1 57
r 2.03576 1 6 tcp 1040 ------- 0 1.1 6.0 2 56
+ 2.03576 6 1 ack 40 ------- 0 6.0 1.1 2 58
- 2.03576 6 1 ack 40 ------- 0 6.0 1.1 2 58
r 2.043093 6 1 ack 40 ------- 0 6.0 1.1 1 57
+ 2.043093 1 6 tcp 1040 ------- 0 1.1 6.0 3 59
- 2.043093 1 6 tcp 1040 ------- 0 1.1 6.0 3 59
+ 2.043093 1 6 tcp 1040 ------- 0 1.1 6.0 4 60
r 2.045867 6 1 ack 40 ------- 0 6.0 1.1 2 58
+ 2.045867 1 6 tcp 1040 ------- 0 1.1 6.0 5 61
+ 2.045867 1 6 tcp 1040 ------- 0 1.1 6.0 6 62
- 2.045867 1 6 tcp 1040 ------- 0 1.1 6.0 4 60
- 2.04864 1 6 tcp 1040 ------- 0 1.1 6.0 5 61
- 2.051413 1 6 tcp 1040 ------- 0 1.1 6.0 6 62
r 2.055867 1 6 tcp 1040 ------- 0 1.1 6.0 3 59
+ 2.055867 6 1 ack 40 ------- 0 6.0 1.1 3 63
- 2.055867 6 1 ack 40 ------- 0 6.0 1.1 3 63
r 2.05864 1 6 tcp 1040 ------- 0 1.1 6.0 4 60
+ 2.05864 6 1 ack 40 ------- 0 6.0 1.1 4 64
- 2.05864 6 1 ack 40 ------- 0 6.0 1.1 4 64
r 2.061413 1 6 tcp 1040 ------- 0 1.1 6.0 5 61
+ 2.061413 6 1 ack 40 ------- 0 6.0 1.1 5 65
- 2.061413 6 1 ack 40 ------- 0 6.0 1.1 5 65
r 2.064187 1 6 tcp 1040 ------- 0 1.1 6.0 6 62
+ 2.064187 6 1 ack 40 ------- 0 6.0 1.1 6 66
- 2.064187 6 1 ack 40 ------- 0 6.0 1.1 6 66
r 2.065973 6 1 ack 40 ------- 0 6.0 1.1 3 63
+ 2.065973 1 6 tcp 1040 ------- 0 1.1 6.0 7 67
- 2.065973 1 6 tcp 1040 ------- 0 1.1 6.0 7 67
+ 2.065973 1 6 tcp 1040 ------- 0 1.1 6.0 8 68
r 2.068747 6 1 ack 40 ------- 0 6.0 1.1 4 64
+ 2.068747 1 6 tcp 1040 ------- 0 1.1 6.0 9 69
+ 2.068747 1 6 tcp 1040 ------- 0 1.1 6.0 10 70
- 2.068747 1 6 tcp 1040 ------- 0 1.1 6.0 8 68
r 2.07152 6 1 ack 40 ------- 0 6.0 1.1 5 65
+ 2.07152 1 6 tcp 1040 ------- 0 1.1 6.0 11 71
+ 2.07152 1 6 tcp 1040 ------- 0 1.1 6.0 12 72
- 2.07152 1 6 tcp 1040 ------- 0 1.1 6.0 9 69
r 2.074293 6 1 ack 40 ------- 0 6.0 1.1 6 66
+ 2.074293 1 6 tcp 1040 ------- 0 1.1 6.0 13 73
+ 2.074293 1 6 tcp 1040 ------- 0 1.1 6.0 14 74
- 2.074293 1 6 tcp 1040 ------- 0 1.1 6.0 10 70
- 2.077067 1 6 tcp 1040 ------- 0 1.1 6.0 11 71
r 2.078747 1 6 tcp 1040 ------- 0 1.1 6.0 7 67
+ 2.078747 6 1 ack 40 ------- 0 6.0 1.1 7 75
- 2.078747 6 1 ack 40 ------- 0 6.0 1.1 7 75
- 2.07984 1 6 tcp 1040 ------- 0 1.1 6.0 12 72
r 2.08152 1 6 tcp 1040 ------- 0 1.1 6.0 8 68
+ 2.08152 6 1 ack 40 ------- 0 6.0 1.1 8 76
- 2.08152 6 1 ack 40 ------- 0 6.0 1.1 8 76
- 2.082613 1 6 tcp 1040 ------- 0 1.1 6.0 13 73
r 2.084293 1 6 tcp 1040 ------- 0 1.1 6.0 9 69
+ 2.084293 6 1 ack 40 ------- 0 6.0 1.1 9 77
- 2.084293 6 1 ack 40 ------- 0 6.0 1.1 9 77
- 2.085387 1 6 tcp 1040 ------- 0 1.1 6.0 14 74
r 2.087067 1 6 tcp 1040 ------- 0 1.1 6.0 10 70
+ 2.087067 6 1 ack 40 ------- 0 6.0 1.1 10 78
- 2.087067 6 1 ack 40 ------- 0 6.0 1.1 10 78
r 2.088853 6 1 ack 40 ------- 0 6.0 1.1 7 75
+ 2.088853 1 6 tcp 1040 ------- 0 1.1 6.0 15 79
- 2.088853 1 6 tcp 1040 ------- 0 1.1 6.0 15 79
+ 2.088853 1 6 tcp 1040 ------- 0 1.1 6.0 16 80
r 2.08984 1 6 tcp 1040 ------- 0 1.1 6.0 11 71
+ 2.08984 6 1 ack 40 ------- 0 6.0 1.1 11 81
- 2.08984 6 1 ack 40 ------- 0 6.0 1.1 11 81
r 2.091627 6 1 ack 40 ------- 0 6.0 1.1 8 76
+ 2.091627 1 6 tcp 1040 ------- 0 1.1 6.0 17 82
+ 2.091627 1 6 tcp 1040 ------- 0 1.1 6.0 18 83
- 2.091627 1 6 tcp 1040 ------- 0 1.1 6.0 16 80
r 2.092613 1 6 tcp 1040 ------- 0 1.1 6.0 12 72
+ 2.092613 6 1 ack 40 ------- 0 6.0 1.1 12 84
- 2.092613 6 1 ack 40 ------- 0 6.0 1.1 12 84
r 2.0944 6 1 ack 40 ------- 0 6.0 1.1 9 77
+ 2.0944 1 6 tcp 1040 ------- 0 1.1 6.0 19 85
+ 2.0944 1 6 tcp 1040 ------- 0 1.1 6.0 20 86
- 2.0944 1 6 tcp 1040 ------- 0 1.1 6.0 17 82
r 2.095387 1 6 tcp 1040 ------- 0 1.1 6.0 13 73
+ 2.095387 6 1 ack 40 ------- 0 6.0 1.1 13 87
- 2.095387 6 1 ack 40 ------- 0 6.0 1.1 13 87
r 2.097173 6 1 ack 40 ------- 0 6.0 1.1 10 78
+ 2.097173 1 6 tcp 1040 ------- 0 1.1 6.0 21 88
+ 2.097173 1 6 tcp 1040 ------- 0 1.1 6.0 22 89
- 2.097173 1 6 tcp 1040 ------- 0 1.1 6.0 18 83
r 2.09816 1 6 tcp 1040 ------- 0 1.1 6.0 14 74
+ 2.09816 6 1 ack 40 ------- 0 6.0 1.1 14 90
- 2.09816 6 1 ack 40 ------- 0 6.0 1.1 14 90
r 2.099947 6 1 ack 40 ------- 0 6.0 1.1 11 81
+ 2.099947 1 6 tcp 1040 ------- 0 1.1 6.0 23 91
+ 2.099947 1 6 tcp 1040 ------- 0 1.1 6.0 24 92
- 2.099947 1 6 tcp 1040 ------- 0 1.1 6.0 19 85
r 2.101627 1 6 tcp 1040 ------- 0 1.1 6.0 15 79
+ 2.101627 6 1 ack 40 ------- 0 6.0 1.1 15 93
- 2.101627 6 1 ack 40 ------- 0 6.0 1.1 15 93
r 2.10272 6 1 ack 40 ------- 0 6.0 1.1 12 84
+ 2.10272 1 6 tcp 1040 ------- 0 1.1 6.0 25 94
+ 2.10272 1 6 tcp 1040 ------- 0 1.1 6.0 26 95
- 2.10272 1 6 tcp 1040 ------- 0 1.1 6.0 20 86
r 2.1044 1 6 tcp 1040 ------- 0 1.1 6.0 16 80
+ 2.1044 6 1 ack 40 ------- 0 6.0 1.1 16 96
- 2.1044 6 1 ack 40 ------- 0 6.0 1.1 16 96
r 2.105493 6 1 ack 40 ------- 0 6.0 1.1 13 87
+ 2.105493 1 6 tcp 1040 ------- 0 1.1 6.0 27 97
+ 2.105493 1 6 tcp 1040 ------- 0 1.1 6.0 28 98
- 2.105493 1 6 tcp 1040 ------- 0 1.1 6.0 21 88
r 2.107173 1 6 tcp 1040 ------- 0 1.1 6.0 17 82
+ 2.107173 6 1 ack 40 ------- 0 6.0 1.1 17 99
- 2.107173 6 1 ack 40 ------- 0 6.0 1.1 17 99
r 2.108267 6 1 ack 40 ------- 0 6.0 1.1 14 90
+ 2.108267 1 6 tcp 1040 ------- 0 1.1 6.0 29 100
+ 2.108267 1 6 tcp 1040 ------- 0 1.1 6.0 30 101
- 2.108267 1 6 tcp 1040 ------- 0 1.1 6.0 22 89
r 2.109947 1 6 tcp 1040 ------- 0 1.1 6.0 18 83
+ 2.109947 6 1 ack 40 ------- 0 6.0 1.1 18 102
- 2.109947 6 1 ack 40 ------- 0 6.0 1.1 18 102
- 2.11104 1 6 tcp 1040 ------- 0 1.1 6.0 23 91
r 2.111733 6 1 ack 40 ------- 0 6.0 1.1 15 93
+ 2.111733 1 6 tcp 1040 ------- 0 1.1 6.0 31 103
+ 2.111733 1 6 tcp 1040 ------- 0 1.1 6.0 32 104
r 2.11272 1 6 tcp 1040 ------- 0 1.1 6.0 19 85
+ 2.11272 6 1 ack 40 ------- 0 6.0 1.1 19 105
- 2.11272 6 1 ack 40 ------- 0 6.0 1.1 19 105
- 2.113813 1 6 tcp 1040 ------- 0 1.1 6.0 24 92
r 2.114507 6 1 ack 40 ------- 0 6.0 1.1 16 96
+ 2.114507 1 6 tcp 1040 ------- 0 1.1 6.0 33 106
+ 2.114507 1 6 tcp 1040 ------- 0 1.1 6.0 34 107
r 2.115493 1 6 tcp 1040 ------- 0 1.1 6.0 20 86
+ 2.115493 6 1 ack 40 ------- 0 6.0 1.1 20 108
- 2.115493 6 1 ack 40 ------- 0 6.0 1.1 20 108
- 2.116587 1 6 tcp 1040 ------- 0 1.1 6.0 25 94
r 2.11728 6 1 ack 40 ------- 0 6.0 1.1 17 99
+ 2.11728 1 6 tcp 1040 ------- 0 1.1 6.0 35 109
+ 2.11728 1 6 tcp 1040 ------- 0 1.1 6.0 36 110
r 2.118267 1 6 tcp 1040 ------- 0 1.1 6.0 21 88
+ 2.118267 6 1 ack 40 ------- 0 6.0 1.1 21 111
- 2.118267 6 1 ack 40 ------- 0 6.0 1.1 21 111
- 2.11936 1 6 tcp 1040 ------- 0 1.1 6.0 26 95
r 2.120053 6 1 ack 40 ------- 0 6.0 1.1 18 102
+ 2.120053 1 6 tcp 1040 ------- 0 1.1 6.0 37 112
+ 2.120053 1 6 tcp 1040 ------- 0 1.1 6.0 38 113
r 2.12104 1 6 tcp 1040 ------- 0 1.1 6.0 22 89
+ 2.12104 6 1 ack 40 ------- 0 6.0 1.1 22 114
- 2.12104 6 1 ack 40 ------- 0 6.0 1.1 22 114
- 2.122133 1 6 tcp 1040 ------- 0 1.1 6.0 27 97
r 2.122827 6 1 ack 40 ------- 0 6.0 1.1 19 105
+ 2.122827 1 6 tcp 1040 ------- 0 1.1 6.0 39 115
r 2.123813 1 6 tcp 1040 ------- 0 1.1 6.0 23 91
+ 2.123813 6 1 ack 40 ------- 0 6.0 1.1 23 116
- 2.123813 6 1 ack 40 ------- 0 6.0 1.1 23 116
- 2.124907 1 6 tcp 1040 ------- 0 1.1 6.0 28 98
r 2.1256 6 1 ack 40 ------- 0 6.0 1.1 20 108
+ 2.1256 1 6 tcp 1040 ------- 0 1.1 6.0 40 117
r 2.126587 1 6 tcp 1040 ------- 0 1.1 6.0 24 92
+ 2.126587 6 1 ack 40 ------- 0 6.0 1.1 24 118
- 2.126587 6 1 ack 40 ------- 0 6.0 1.1 24 118
- 2.12768 1 6 tcp 1040 ------- 0 1.1 6.0 29 100
r 2.128373 6 1 ack 40 ------- 0 6.0 1.1 21 111
+ 2.128373 1 6 tcp 1040 ------- 0 1.1 6.0 41 119
r 2.12936 1 6 tcp 1040 ------- 0 1.1 6.0 25 94
+ 2.12936 6 1 ack 40 ------- 0 6.0 1.1 25 120
- 2.12936 6 1 ack 40 ------- 0 6.0 1.1 25 120
- 2.130453 1 6 tcp 1040 ------- 0 1.1 6.0 30 101
r 2.131147 6 1 ack 40 ------- 0 6.0 1.1 22 114
+ 2.131147 1 6 tcp 1040 ------- 0 1.1 6.0 42 121
r 2.132133 1 6 tcp 1040 ------- 0 1.1 6.0 26 95
+ 2.132133 6 1 ack 40 ------- 0 6.0 1.1 26 122
- 2.132133 6 1 ack 40 ------- 0 6.0 1.1 26 122
- 2.133227 1 6 tcp 1040 ------- 0 1.1 6.0 31 103
r 2.13392 6 1 ack 40 ------- 0 6.0 1.1 23 116
+ 2.13392 1 6 tcp 1040 ------- 0 1.1 6.0 43 123
r 2.134907 1 6 tcp 1040 ------- 0 1.1 6.0 27 97
+ 2.134907 6 1 ack 40 ------- 0 6.0 1.1 27 124
- 2.134907 6 1 ack 40 ------- 0 6.0 1.1 27 124
- 2.136 1 6 tcp 1040 ------- 0 1.1 6.0 32 104
r 2.136693 6 1 ack 40 ------- 0 6.0 1.1 24 118
+ 2.136693 1 6 tcp 1040 ------- 0 1.1 6.0 44 125
r 2.13768 1 6 tcp 1040 ------- 0 1.1 6.0 28 98
+ 2.13768 6 1 ack 40 ------- 0 6.0 1.1 28 126
- 2.13768 6 1 ack 40 ------- 0 6.0 1.1 28 126
- 2.138773 1 6 tcp 1040 ------- 0 1.1 6.0 33 106
r 2.139467 6 1 ack 40 ------- 0 6.0 1.1 25 120
+ 2.139467 1 6 tcp 1040 ------- 0 1.1 6.0 45 127
r 2.140453 1 6 tcp 1040 ------- 0 1.1 6.0 29 100
+ 2.140453 6 1 ack 40 ------- 0 6.0 1.1 29 128
- 2.140453 6 1 ack 40 ------- 0 6.0 1.1 29 128
- 2.141547 1 6 tcp 1040 ------- 0 1.1 6.0 34 107
r 2.14224 6 1 ack 40 ------- 0 6.0 1.1 26 122
+ 2.14224 1 6 tcp 1040 ------- 0 1.1 6.0 46 129
r 2.143227 1 6 tcp 1040 ------- 0 1.1 6.0 30 101
+ 2.143227 6 1 ack 40 ------- 0 6.0 1.1 30 130
- 2.143227 6 1 ack 40 ------- 0 6.0 1.1 30 130
- 2.14432 1 6 tcp 1040 ------- 0 1.1 6.0 35 109
r 2.145013 6 1 ack 40 ------- 0 6.0 1.1 27 124
+ 2.145013 1 6 tcp 1040 ------- 0 1.1 6.0 47 131
r 2.146 1 6 tcp 1040 ------- 0 1.1 6.0 31 103
+ 2.146 6 1 ack 40 ------- 0 6.0 1.1 31 132
- 2.146 6 1 ack 40 ------- 0 6.0 1.1 31 132
- 2.147093 1 6 tcp 1040 ------- 0 1.1 6.0 36 110
r 2.147787 6 1 ack 40 ------- 0 6.0 1.1 28 126
+ 2.147787 1 6 tcp 1040 ------- 0 1.1 6.0 48 133
r 2.148773 1 6 tcp 1040 ------- 0 1.1 6.0 32 104
+ 2.148773 6 1 ack 40 ------- 0 6.0 1.1 32 134
- 2.148773 6 1 ack 40 ------- 0 6.0 1.1 32 134
- 2.149867 1 6 tcp 1040 ------- 0 1.1 6.0 37 112
r 2.15056 6 1 ack 40 ------- 0 6.0 1.1 29 128
+ 2.15056 1 6 tcp 1040 ------- 0 1.1 6.0 49 135
r 2.151547 1 6 tcp 1040 ------- 0 1.1 6.0 33 106
+ 2.151547 6 1 ack 40 ------- 0 6.0 1.1 33 136
- 2.151547 6 1 ack 40 ------- 0 6.0 1.1 33 136
- 2.15264 1 6 tcp 1040 ------- 0 1.1 6.0 38 113
r 2.153333 6 1 ack 40 ------- 0 6.0 1.1 30 130
+ 2.153333 1 6 tcp 1040 ------- 0 1.1 6.0 50 137
r 2.15432 1 6 tcp 1040 ------- 0 1.1 6.0 34 107
+ 2.15432 6 1 ack 40 ------- 0 6.0 1.1 34 138
- 2.15432 6 1 ack 40 ------- 0 6.0 1.1 34 138
- 2.155413 1 6 tcp 1040 ------- 0 1.1 6.0 39 115
r 2.156107 6 1 ack 40 ------- 0 6.0 1.1 31 132
+ 2.156107 1 6 tcp 1040 ------- 0 1.1 6.0 51 139
r 2.157093 1 6 tcp 1040 ------- 0 1.1 6.0 35 109
+ 2.157093 6 1 ack 40 ------- 0 6.0 1.1 35 140
- 2.157093 6 1 ack 40 ------- 0 6.0 1.1 35 140
- 2.158187 1 6 tcp 1040 ------- 0 1.1 6.0 40 117
r 2.15888 6 1 ack 40 ------- 0 6.0 1.1 32 134
+ 2.15888 1 6 tcp 1040 ------- 0 1.1 6.0 52 141
r 2.159867 1 6 tcp 1040 ------- 0 1.1 6.0 36 110
+ 2.159867 6 1 ack 40 ------- 0 6.0 1.1 36 142
- 2.159867 6 1 ack 40 ------- 0 6.0 1.1 36 142
- 2.16096 1 6 tcp 1040 ------- 0 1.1 6.0 41 119
r 2.161653 6 1 ack 40 ------- 0 6.0 1.1 33 136
+ 2.161653 1 6 tcp 1040 ------- 0 1.1 6.0 53 143
r 2.16264 1 6 tcp 1040 ------- 0 1.1 6.0 37 112
+ 2.16264 6 1 ack 40 ------- 0 6.0 1.1 37 144
- 2.16264 6 1 ack 40 ------- 0 6.0 1.1 37 144
- 2.163733 1 6 tcp 1040 ------- 0 1.1 6.0 42 121
r 2.164427 6 1 ack 40 ------- 0 6.0 1.1 34 138
+ 2.164427 1 6 tcp 1040 ------- 0 1.1 6.0 54 145
r 2.165413 1 6 tcp 1040 ------- 0 1.1 6.0 38 113
+ 2.165413 6 1 ack 40 ------- 0 6.0 1.1 38 146
- 2.165413 6 1 ack 40 ------- 0 6.0 1.1 38 146
- 2.166507 1 6 tcp 1040 ------- 0 1.1 6.0 43 123
r 2.1672 6 1 ack 40 ------- 0 6.0 1.1 35 140
+ 2.1672 1 6 tcp 1040 ------- 0 1.1 6.0 55 147
r 2.168187 1 6 tcp 1040 ------- 0 1.1 6.0 39 115
+ 2.168187 6 1 ack 40 ------- 0 6.0 1.1 39 148
- 2.168187 6 1 ack 40 ------- 0 6.0 1.1 39 148
- 2.16928 1 6 tcp 1040 ------- 0 1.1 6.0 44 125
r 2.169973 6 1 ack 40 ------- 0 6.0 1.1 36 142
+ 2.169973 1 6 tcp 1040 ------- 0 1.1 6.0 56 149
r 2.17096 1 6 tcp 1040 ------- 0 1.1 6.0 40 117
+ 2.17096 6 1 ack 40 ------- 0 6.0 1.1 40 150
- 2.17096 6 1 ack 40 ------- 0 6.0 1.1 40 150
- 2.172053 1 6 tcp 1040 ------- 0 1.1 6.0 45 127
r 2.172747 6 1 ack 40 ------- 0 6.0 1.1 37 144
+ 2.172747 1 6 tcp 1040 ------- 0 1.1 6.0 57 151
r 2.173733 1 6 tcp 1040 ------- 0 1.1 6.0 41 119
+ 2.173733 6 1 ack 40 ------- 0 6.0 1.1 41 152
- 2.173733 6 1 ack 40 ------- 0 6.0 1.1 41 152
- 2.174827 1 6 tcp 1040 ------- 0 1.1 6.0 46 129
r 2.17552 6 1 ack 40 ------- 0 6.0 1.1 38 146
+ 2.17552 1 6 tcp 1040 ------- 0 1.1 6.0 58 153
r 2.176507 1 6 tcp 1040 ------- 0 1.1 6.0 42 121
+ 2.176507 6 1 ack 40 ------- 0 6.0 1.1 42 154
- 2.176507 6 1 ack 40 ------- 0 6.0 1.1 42 154
- 2.1776 1 6 tcp 1040 ------- 0 1.1 6.0 47 131
r 2.178293 6 1 ack 40 ------- 0 6.0 1.1 39 148
+ 2.178293 1 6 tcp 1040 ------- 0 1.1 6.0 59 155
r 2.17928 1 6 tcp 1040 ------- 0 1.1 6.0 43 123
+ 2.17928 6 1 ack 40 ------- 0 6.0 1.1 43 156
- 2.17928 6 1 ack 40 ------- 0 6.0 1.1 43 156
- 2.180373 1 6 tcp 1040 ------- 0 1.1 6.0 48 133
r 2.181067 6 1 ack 40 ------- 0 6.0 1.1 40 150
+ 2.181067 1 6 tcp 1040 ------- 0 1.1 6.0 60 157
r 2.182053 1 6 tcp 1040 ------- 0 1.1 6.0 44 125
+ 2.182053 6 1 ack 40 ------- 0 6.0 1.1 44 158
- 2.182053 6 1 ack 40 ------- 0 6.0 1.1 44 158
- 2.183147 1 6 tcp 1040 ------- 0 1.1 6.0 49 135
r 2.18384 6 1 ack 40 ------- 0 6.0 1.1 41 152
+ 2.18384 1 6 tcp 1040 ------- 0 1.1 6.0 61 159
r 2.184827 1 6 tcp 1040 ------- 0 1.1 6.0 45 127
+ 2.184827 6 1 ack 40 ------- 0 6.0 1.1 45 160
- 2.184827 6 1 ack 40 ------- 0 6.0 1.1 45 160
- 2.18592 1 6 tcp 1040 ------- 0 1.1 6.0 50 137
r 2.186613 6 1 ack 40 ------- 0 6.0 1.1 42 154
+ 2.186613 1 6 tcp 1040 ------- 0 1.1 6.0 62 161
r 2.1876 1 6 tcp 1040 ------- 0 1.1 6.0 46 129
+ 2.1876 6 1 ack 40 ------- 0 6.0 1.1 46 162
- 2.1876 6 1 ack 40 ------- 0 6.0 1.1 46 162
- 2.188693 1 6 tcp 1040 ------- 0 1.1 6.0 51 139
r 2.189387 6 1 ack 40 ------- 0 6.0 1.1 43 156
+ 2.189387 1 6 tcp 1040 ------- 0 1.1 6.0 63 163
r 2.190373 1 6 tcp 1040 ------- 0 1.1 6.0 47 131
+ 2.190373 6 1 ack 40 ------- 0 6.0 1.1 47 164
- 2.190373 6 1 ack 40 ------- 0 6.0 1.1 47 164
- 2.191467 1 6 tcp 1040 ------- 0 1.1 6.0 52 141
r 2.19216 6 1 ack 40 ------- 0 6.0 1.1 44 158
+ 2.19216 1 6 tcp 1040 ------- 0 1.1 6.0 64 165
r 2.193147 1 6 tcp 1040 ------- 0 1.1 6.0 48 133
+ 2.193147 6 1 ack 40 ------- 0 6.0 1.1 48 166
- 2.193147 6 1 ack 40 ------- 0 6.0 1.1 48 166
- 2.19424 1 6 tcp 1040 ------- 0 1.1 6.0 53 143
r 2.194933 6 1 ack 40 ------- 0 6.0 1.1 45 160
+ 2.194933 1 6 tcp 1040 ------- 0 1.1 6.0 65 167
r 2.19592 1 6 tcp 1040 ------- 0 1.1 6.0 49 135
+ 2.19592 6 1 ack 40 ------- 0 6.0 1.1 49 168
- 2.19592 6 1 ack 40 ------- 0 6.0 1.1 49 168
- 2.197013 1 6 tcp 1040 ------- 0 1.1 6.0 54 145
r 2.197707 6 1 ack 40 ------- 0 6.0 1.1 46 162
+ 2.197707 1 6 tcp 1040 ------- 0 1.1 6.0 66 169
r 2.198693 1 6 tcp 1040 ------- 0 1.1 6.0 50 137
+ 2.198693 6 1 ack 40 ------- 0 6.0 1.1 50 170
- 2.198693 6 1 ack 40 ------- 0 6.0 1.1 50 170
- 2.199787 1 6 tcp 1040 ------- 0 1.1 6.0 55 147
r 2.20048 6 1 ack 40 ------- 0 6.0 1.1 47 164
+ 2.20048 1 6 tcp 1040 ------- 0 1.1 6.0 67 171
r 2.201467 1 6 tcp 1040 ------- 0 1.1 6.0 51 139
+ 2.201467 6 1 ack 40 ------- 0 6.0 1.1 51 172
- 2.201467 6 1 ack 40 ------- 0 6.0 1.1 51 172
- 2.20256 1 6 tcp 1040 ------- 0 1.1 6.0 56 149
r 2.203253 6 1 ack 40 ------- 0 6.0 1.1 48 166
+ 2.203253 1 6 tcp 1040 ------- 0 1.1 6.0 68 173
r 2.20424 1 6 tcp 1040 ------- 0 1.1 6.0 52 141
+ 2.20424 6 1 ack 40 ------- 0 6.0 1.1 52 174
- 2.20424 6 1 ack 40 ------- 0 6.0 1.1 52 174
- 2.205333 1 6 tcp 1040 ------- 0 1.1 6.0 57 151
r 2.206027 6 1 ack 40 ------- 0 6.0 1.1 49 168
+ 2.206027 1 6 tcp 1040 ------- 0 1.1 6.0 69 175
r 2.207013 1 6 tcp 1040 ------- 0 1.1 6.0 53 143
+ 2.207013 6 1 ack 40 ------- 0 6.0 1.1 53 176
- 2.207013 6 1 ack 40 ------- 0 6.0 1.1 53 176
- 2.208107 1 6 tcp 1040 ------- 0 1.1 6.0 58 153
r 2.2088 6 1 ack 40 ------- 0 6.0 1.1 50 170
+ 2.2088 1 6 tcp 1040 ------- 0 1.1 6.0 70 177
r 2.209787 1 6 tcp 1040 ------- 0 1.1 6.0 54 145
+ 2.209787 6 1 ack 40 ------- 0 6.0 1.1 54 178
- 2.209787 6 1 ack 40 ------- 0 6.0 1.1 54 178
- 2.21088 1 6 tcp 1040 ------- 0 1.1 6.0 59 155
r 2.211573 6 1 ack 40 ------- 0 6.0 1.1 51 172
+ 2.211573 1 6 tcp 1040 ------- 0 1.1 6.0 71 179
r 2.21256 1 6 tcp 1040 ------- 0 1.1 6.0 55 147
+ 2.21256 6 1 ack 40 ------- 0 6.0 1.1 55 180
- 2.21256 6 1 ack 40 ------- 0 6.0 1.1 55 180
- 2.213653 1 6 tcp 1040 ------- 0 1.1 6.0 60 157
r 2.214347 6 1 ack 40 ------- 0 6.0 1.1 52 174
+ 2.214347 1 6 tcp 1040 ------- 0 1.1 6.0 72 181
r 2.215333 1 6 tcp 1040 ------- 0 1.1 6.0 56 149
+ 2.215333 6 1 ack 40 ------- 0 6.0 1.1 56 182
- 2.215333 6 1 ack 40 ------- 0 6.0 1.1 56 182
- 2.216427 1 6 tcp 1040 ------- 0 1.1 6.0 61 159
r 2.21712 6 1 ack 40 ------- 0 6.0 1.1 53 176
+ 2.21712 1 6 tcp 1040 ------- 0 1.1 6.0 73 183
r 2.218107 1 6 tcp 1040 ------- 0 1.1 6.0 57 151
+ 2.218107 6 1 ack 40 ------- 0 6.0 1.1 57 184
- 2.218107 6 1 ack 40 ------- 0 6.0 1.1 57 184
- 2.2192 1 6 tcp 1040 ------- 0 1.1 6.0 62 161
r 2.219893 6 1 ack 40 ------- 0 6.0 1.1 54 178
+ 2.219893 1 6 tcp 1040 ------- 0 1.1 6.0 74 185
r 2.22088 1 6 tcp 1040 ------- 0 1.1 6.0 58 153
+ 2.22088 6 1 ack 40 ------- 0 6.0 1.1 58 186
- 2.22088 6 1 ack 40 ------- 0 6.0 1.1 58 186
- 2.221973 1 6 tcp 1040 ------- 0 1.1 6.0 63 163
r 2.222667 6 1 ack 40 ------- 0 6.0 1.1 55 180
+ 2.222667 1 6 tcp 1040 ------- 0 1.1 6.0 75 187
r 2.223653 1 6 tcp 1040 ------- 0 1.1 6.0 59 155
+ 2.223653 6 1 ack 40 ------- 0 6.0 1.1 59 188
- 2.223653 6 1 ack 40 ------- 0 6.0 1.1 59 188
- 2.224747 1 6 tcp 1040 ------- 0 1.1 6.0 64 165
r 2.22544 6 1 ack 40 ------- 0 6.0 1.1 56 182
+ 2.22544 1 6 tcp 1040 ------- 0 1.1 6.0 76 189
r 2.226427 1 6 tcp 1040 ------- 0 1.1 6.0 60 157
+ 2.226427 6 1 ack 40 ------- 0 6.0 1.1 60 190
- 2.226427 6 1 ack 40 ------- 0 6.0 1.1 60 190
- 2.22752 1 6 tcp 1040 ------- 0 1.1 6.0 65 167
r 2.228213 6 1 ack 40 ------- 0 6.0 1.1 57 184
+ 2.228213 1 6 tcp 1040 ------- 0 1.1 6.0 77 191
r 2.2292 1 6 tcp 1040 ------- 0 1.1 6.0 61 159
+ 2.2292 6 1 ack 40 ------- 0 6.0 1.1 61 192
- 2.2292 6 1 ack 40 ------- 0 6.0 1.1 61 192
- 2.230293 1 6 tcp 1040 ------- 0 1.1 6.0 66 169
r 2.230987 6 1 ack 40 ------- 0 6.0 1.1 58 186
+ 2.230987 1 6 tcp 1040 ------- 0 1.1 6.0 78 193
r 2.231973 1 6 tcp 1040 ------- 0 1.1 6.0 62 161
+ 2.231973 6 1 ack 40 ------- 0 6.0 1.1 62 194
- 2.231973 6 1 ack 40 ------- 0 6.0 1.1 62 194
- 2.233067 1 6 tcp 1040 ------- 0 1.1 6.0 67 171
r 2.23376 6 1 ack 40 ------- 0 6.0 1.1 59 188
+ 2.23376 1 6 tcp 1040 ------- 0 1.1 6.0 79 195
r 2.234747 1 6 tcp 1040 ------- 0 1.1 6.0 63 163
+ 2.234747 6 1 ack 40 ------- 0 6.0 1.1 63 196
- 2.234747 6 1 ack 40 ------- 0 6.0 1.1 63 196
- 2.23584 1 6 tcp 1040 ------- 0 1.1 6.0 68 173
r 2.236533 6 1 ack 40 ------- 0 6.0 1.1 60 190
+ 2.236533 1 6 tcp 1040 ------- 0 1.1 6.0 80 197
r 2.23752 1 6 tcp 1040 ------- 0 1.1 6.0 64 165
+ 2.23752 6 1 ack 40 ------- 0 6.0 1.1 64 198
- 2.23752 6 1 ack 40 ------- 0 6.0 1.1 64 198
- 2.238613 1 6 tcp 1040 ------- 0 1.1 6.0 69 175
r 2.239307 6 1 ack 40 ------- 0 6.0 1.1 61 192
+ 2.239307 1 6 tcp 1040 ------- 0 1.1 6.0 81 199
r 2.240293 1 6 tcp 1040 ------- 0 1.1 6.0 65 167
+ 2.240293 6 1 ack 40 ------- 0 6.0 1.1 65 200
- 2.240293 6 1 ack 40 ------- 0 6.0 1.1 65 200
- 2.241387 1 6 tcp 1040 ------- 0 1.1 6.0 70 177
r 2.24208 6 1 ack 40 ------- 0 6.0 1.1 62 194
+ 2.24208 1 6 tcp 1040 ------- 0 1.1 6.0 82 201
r 2.243067 1 6 tcp 1040 ------- 0 1.1 6.0 66 169
+ 2.243067 6 1 ack 40 ------- 0 6.0 1.1 66 202
- 2.243067 6 1 ack 40 ------- 0 6.0 1.1 66 202
- 2.24416 1 6 tcp 1040 ------- 0 1.1 6.0 71 179
r 2.244853 6 1 ack 40 ------- 0 6.0 1.1 63 196
+ 2.244853 1 6 tcp 1040 ------- 0 1.1 6.0 83 203
r 2.24584 1 6 tcp 1040 ------- 0 1.1 6.0 67 171
+ 2.24584 6 1 ack 40 ------- 0 6.0 1.1 67 204
- 2.24584 6 1 ack 40 ------- 0 6.0 1.1 67 204
- 2.246933 1 6 tcp 1040 ------- 0 1.1 6.0 72 181
r 2.247627 6 1 ack 40 ------- 0 6.0 1.1 64 198
+ 2.247627 1 6 tcp 1040 ------- 0 1.1 6.0 84 205
r 2.248613 1 6 tcp 1040 ------- 0 1.1 6.0 68 173
+ 2.248613 6 1 ack 40 ------- 0 6.0 1.1 68 206
- 2.248613 6 1 ack 40 ------- 0 6.0 1.1 68 206
- 2.249707 1 6 tcp 1040 ------- 0 1.1 6.0 73 183
r 2.2504 6 1 ack 40 ------- 0 6.0 1.1 65 200
+ 2.2504 1 6 tcp 1040 ------- 0 1.1 6.0 85 207
r 2.251387 1 6 tcp 1040 ------- 0 1.1 6.0 69 175
+ 2.251387 6 1 ack 40 ------- 0 6.0 1.1 69 208
- 2.251387 6 1 ack 40 ------- 0 6.0 1.1 69 208
- 2.25248 1 6 tcp 1040 ------- 0 1.1 6.0 74 185
r 2.253173 6 1 ack 40 ------- 0 6.0 1.1 66 202
+ 2.253173 1 6 tcp 1040 ------- 0 1.1 6.0 86 209
r 2.25416 1 6 tcp 1040 ------- 0 1.1 6.0 70 177
+ 2.25416 6 1 ack 40 ------- 0 6.0 1.1 70 210
- 2.25416 6 1 ack 40 ------- 0 6.0 1.1 70 210
- 2.255253 1 6 tcp 1040 ------- 0 1.1 6.0 75 187
r 2.255947 6 1 ack 40 ------- 0 6.0 1.1 67 204
+ 2.255947 1 6 tcp 1040 ------- 0 1.1 6.0 87 211
r 2.256933 1 6 tcp 1040 ------- 0 1.1 6.0 71 179
+ 2.256933 6 1 ack 40 ------- 0 6.0 1.1 71 212
- 2.256933 6 1 ack 40 ------- 0 6.0 1.1 71 212
- 2.258027 1 6 tcp 1040 ------- 0 1.1 6.0 76 189
r 2.25872 6 1 ack 40 ------- 0 6.0 1.1 68 206
+ 2.25872 1 6 tcp 1040 ------- 0 1.1 6.0 88 213
r 2.259707 1 6 tcp 1040 ------- 0 1.1 6.0 72 181
+ 2.259707 6 1 ack 40 ------- 0 6.0 1.1 72 214
- 2.259707 6 1 ack 40 ------- 0 6.0 1.1 72 214
- 2.2608 1 6 tcp 1040 ------- 0 1.1 6.0 77 191
r 2.261493 6 1 ack 40 ------- 0 6.0 1.1 69 208
+ 2.261493 1 6 tcp 1040 ------- 0 1.1 6.0 89 215
r 2.26248 1 6 tcp 1040 ------- 0 1.1 6.0 73 183
+ 2.26248 6 1 ack 40 ------- 0 6.0 1.1 73 216
- 2.26248 6 1 ack 40 ------- 0 6.0 1.1 73 216
- 2.263573 1 6 tcp 1040 ------- 0 1.1 6.0 78 193
r 2.264267 6 1 ack 40 ------- 0 6.0 1.1 70 210
+ 2.264267 1 6 tcp 1040 ------- 0 1.1 6.0 90 217
r 2.265253 1 6 tcp 1040 ------- 0 1.1 6.0 74 185
+ 2.265253 6 1 ack 40 ------- 0 6.0 1.1 74 218
- 2.265253 6 1 ack 40 ------- 0 6.0 1.1 74 218
- 2.266347 1 6 tcp 1040 ------- 0 1.1 6.0 79 195
r 2.26704 6 1 ack 40 ------- 0 6.0 1.1 71 212
+ 2.26704 1 6 tcp 1040 ------- 0 1.1 6.0 91 219
r 2.268027 1 6 tcp 1040 ------- 0 1.1 6.0 75 187
+ 2.268027 6 1 ack 40 ------- 0 6.0 1.1 75 220
- 2.268027 6 1 ack 40 ------- 0 6.0 1.1 75 220
- 2.26912 1 6 tcp 1040 ------- 0 1.1 6.0 80 197