V -t * -v 1.0a5 -a 0
A -t * -n 1 -p 0 -o 0x7fffffff -c 30 -a 1
A -t * -h 1 -m 1073741823 -s 0
n -t * -a 8 -s 8 -S UP -v circle -c black -i black
n -t * -a 4 -s 4 -S UP -v circle -c black -i black
n -t * -a 0 -s 0 -S UP -v circle -c black -i black
n -t * -a 9 -s 9 -S UP -v circle -c black -i black
n -t * -a 5 -s 5 -S UP -v circle -c black -i black
n -t * -a 1 -s 1 -S UP -v circle -c black -i black
n -t * -a 6 -s 6 -S UP -v circle -c black -i black
n -t * -a 2 -s 2 -S UP -v circle -c black -i black
n -t * -a 7 -s 7 -S UP -v circle -c black -i black
n -t * -a 3 -s 3 -S UP -v circle -c black -i black
l -t * -s 0 -d 1 -S UP -r 2000000 -D 0.001 -c black
l -t * -s 2 -d 3 -S UP -r 1000000 -D 0.01 -c black
l -t * -s 1 -d 6 -S UP -r 3000000 -D 0.01 -c black
l -t * -s 4 -d 3 -S UP -r 2000000 -D 0.050000000000000003 -c black
l -t * -s 8 -d 1 -S UP -r 3000000 -D 0.025000000000000001 -c black
l -t * -s 6 -d 4 -S UP -r 1000000 -D 0.029999999999999999 -c black
l -t * -s 7 -d 5 -S UP -r 2000000 -D 0.014999999999999999 -c black
l -t * -s 8 -d 4 -S UP -r 20000000 -D 0.0040000000000000001 -c black
l -t * -s 2 -d 5 -S UP -r 2000000 -D 0.10000000000000001 -c black
l -t * -s 0 -d 9 -S UP -r 12000000 -D 0.01 -c black
l -t * -s 0 -d 3 -S UP -r 20000000 -D 0.014 -c black
l -t * -s 9 -d 7 -S UP -r 20000000 -D 0.0040000000000000001 -c black
v -t 0.1 -e sim_annotation 0.1 1 Time: 0.1 SMTP Traffic from Node 0 to Node 1 ..
+ -t 0.119209989602939 -s 0 -d 1 -p exp -e 100 -c 0 -i 0 -a 0 -x {0.0 1.0 0 ------- null}
- -t 0.119209989602939 -s 0 -d 1 -p exp -e 100 -c 0 -i 0 -a 0 -x {0.0 1.0 0 ------- null}
h -t 0.119209989602939 -s 0 -d 1 -p exp -e 100 -c 0 -i 0 -a 0 -x {0.0 1.0 -1 ------- null}
r -t 0.120609989602939 -s 0 -d 1 -p exp -e 100 -c 0 -i 0 -a 0 -x {0.0 1.0 0 ------- null}
+ -t 0.127209989602939 -s 0 -d 1 -p exp -e 100 -c 0 -i 1 -a 0 -x {0.0 1.0 1 ------- null}
- -t 0.127209989602939 -s 0 -d 1 -p exp -e 100 -c 0 -i 1 -a 0 -x {0.0 1.0 1 ------- null}
h -t 0.127209989602939 -s 0 -d 1 -p exp -e 100 -c 0 -i 1 -a 0 -x {0.0 1.0 -1 ------- null}
r -t 0.128609989602939 -s 0 -d 1 -p exp -e 100 -c 0 -i 1 -a 0 -x {0.0 1.0 1 ------- null}
+ -t 0.135209989602939 -s 0 -d 1 -p exp -e 100 -c 0 -i 2 -a 0 -x {0.0 1.0 2 ------- null}
- -t 0.135209989602939 -s 0 -d 1 -p exp -e 100 -c 0 -i 2 -a 0 -x {0.0 1.0 2 ------- null}
h -t 0.135209989602939 -s 0 -d 1 -p exp -e 100 -c 0 -i 2 -a 0 -x {0.0 1.0 -1 ------- null}
r -t 0.136609989602939 -s 0 -d 1 -p exp -e 100 -c 0 -i 2 -a 0 -x {0.0 1.0 2 ------- null}
+ -t 0.143209989602939 -s 0 -d 1 -p exp -e 100 -c 0 -i 3 -a 0 -x {0.0 1.0 3 ------- null}
- -t 0.143209989602939 -s 0 -d 1 -p exp -e 100 -c 0 -i 3 -a 0 -x {0.0 1.0 3 ------- null}
h -t 0.143209989602939 -s 0 -d 1 -p exp -e 100 -c 0 -i 3 -a 0 -x {0.0 1.0 -1 ------- null}
r -t 0.144609989602939 -s 0 -d 1 -p exp -e 100 -c 0 -i 3 -a 0 -x {0.0 1.0 3 ------- null}
+ -t 0.151209989602939 -s 0 -d 1 -p exp -e 100 -c 0 -i 4 -a 0 -x {0.0 1.0 4 ------- null}
- -t 0.151209989602939 -s 0 -d 1 -p exp -e 100 -c 0 -i 4 -a 0 -x {0.0 1.0 4 ------- null}
h -t 0.151209989602939 -s 0 -d 1 -p exp -e 100 -c 0 -i 4 -a 0 -x {0.0 1.0 -1 ------- null}
r -t 0.152609989602939 -s 0 -d 1 -p exp -e 100 -c 0 -i 4 -a 0 -x {0.0 1.0 4 ------- null}
+ -t 0.169347874491758 -s 0 -d 1 -p exp -e 100 -c 0 -i 5 -a 0 -x {0.0 1.0 5 ------- null}
- -t 0.169347874491758 -s 0 -d 1 -p exp -e 100 -c 0 -i 5 -a 0 -x {0.0 1.0 5 ------- null}
h -t 0.169347874491758 -s 0 -d 1 -p exp -e 100 -c 0 -i 5 -a 0 -x {0.0 1.0 -1 ------- null}
r -t 0.170747874491758 -s 0 -d 1 -p exp -e 100 -c 0 -i 5 -a 0 -x {0.0 1.0 5 ------- null}
+ -t 0.177347874491758 -s 0 -d 1 -p exp -e 100 -c 0 -i 6 -a 0 -x {0.0 1.0 6 ------- null}
- -t 0.177347874491758 -s 0 -d 1 -p exp -e 100 -c 0 -i 6 -a 0 -x {0.0 1.0 6 ------- null}
h -t 0.177347874491758 -s 0 -d 1 -p exp -e 100 -c 0 -i 6 -a 0 -x {0.0 1.0 -1 ------- null}
r -t 0.178747874491758 -s 0 -d 1 -p exp -e 100 -c 0 -i 6 -a 0 -x {0.0 1.0 6 ------- null}
+ -t 0.185347874491758 -s 0 -d 1 -p exp -e 100 -c 0 -i 7 -a 0 -x {0.0 1.0 7 ------- null}
- -t 0.185347874491758 -s 0 -d 1 -p exp -e 100 -c 0 -i 7 -a 0 -x {0.0 1.0 7 ------- null}
h -t 0.185347874491758 -s 0 -d 1 -p exp -e 100 -c 0 -i 7 -a 0 -x {0.0 1.0 -1 ------- null}
r -t 0.186747874491758 -s 0 -d 1 -p exp -e 100 -c 0 -i 7 -a 0 -x {0.0 1.0 7 ------- null}
+ -t 0.193347874491758 -s 0 -d 1 -p exp -e 100 -c 0 -i 8 -a 0 -x {0.0 1.0 8 ------- null}
- -t 0.193347874491758 -s 0 -d 1 -p exp -e 100 -c 0 -i 8 -a 0 -x {0.0 1.0 8 ------- null}
h -t 0.193347874491758 -s 0 -d 1 -p exp -e 100 -c 0 -i 8 -a 0 -x {0.0 1.0 -1 ------- null}
r -t 0.194747874491758 -s 0 -d 1 -p exp -e 100 -c 0 -i 8 -a 0 -x {0.0 1.0 8 ------- null}
+ -t 0.201347874491758 -s 0 -d 1 -p exp -e 100 -c 0 -i 9 -a 0 -x {0.0 1.0 9 ------- null}
- -t 0.201347874491758 -s 0 -d 1 -p exp -e 100 -c 0 -i 9 -a 0 -x {0.0 1.0 9 ------- null}
h -t 0.201347874491758 -s 0 -d 1 -p exp -e 100 -c 0 -i 9 -a 0 -x {0.0 1.0 -1 ------- null}
r -t 0.202747874491758 -s 0 -d 1 -p exp -e 100 -c 0 -i 9 -a 0 -x {0.0 1.0 9 ------- null}
+ -t 0.209347874491758 -s 0 -d 1 -p exp -e 100 -c 0 -i 10 -a 0 -x {0.0 1.0 10 ------- null}
- -t 0.209347874491758 -s 0 -d 1 -p exp -e 100 -c 0 -i 10 -a 0 -x {0.0 1.0 10 ------- null}
h -t 0.209347874491758 -s 0 -d 1 -p exp -e 100 -c 0 -i 10 -a 0 -x {0.0 1.0 -1 ------- null}
r -t 0.210747874491758 -s 0 -d 1 -p exp -e 100 -c 0 -i 10 -a 0 -x {0.0 1.0 10 ------- null}
+ -t 0.217347874491758 -s 0 -d 1 -p exp -e 100 -c 0 -i 11 -a 0 -x {0.0 1.0 11 ------- null}
- -t 0.217347874491758 -s 0 -d 1 -p exp -e 100 -c 0 -i 11 -a 0 -x {0.0 1.0 11 ------- null}
h -t 0.217347874491758 -s 0 -d 1 -p exp -e 100 -c 0 -i 11 -a 0 -x {0.0 1.0 -1 ------- null}
r -t 0.218747874491758 -s 0 -d 1 -p exp -e 100 -c 0 -i 11 -a 0 -x {0.0 1.0 11 ------- null}
+ -t 0.247750969005698 -s 0 -d 1 -p exp -e 100 -c 0 -i 12 -a 0 -x {0.0 1.0 12 ------- null}
- -t 0.247750969005698 -s 0 -d 1 -p exp -e 100 -c 0 -i 12 -a 0 -x {0.0 1.0 12 ------- null}
h -t 0.247750969005698 -s 0 -d 1 -p exp -e 100 -c 0 -i 12 -a 0 -x {0.0 1.0 -1 ------- null}
r -t 0.249150969005698 -s 0 -d 1 -p exp -e 100 -c 0 -i 12 -a 0 -x {0.0 1.0 12 ------- null}
+ -t 0.255750969005698 -s 0 -d 1 -p exp -e 100 -c 0 -i 13 -a 0 -x {0.0 1.0 13 ------- null}
- -t 0.255750969005698 -s 0 -d 1 -p exp -e 100 -c 0 -i 13 -a 0 -x {0.0 1.0 13 ------- null}
h -t 0.255750969005698 -s 0 -d 1 -p exp -e 100 -c 0 -i 13 -a 0 -x {0.0 1.0 -1 ------- null}
r -t 0.257150969005698 -s 0 -d 1 -p exp -e 100 -c 0 -i 13 -a 0 -x {0.0 1.0 13 ------- null}
+ -t 0.263750969005698 -s 0 -d 1 -p exp -e 100 -c 0 -i 14 -a 0 -x {0.0 1.0 14 ------- null}
- -t 0.263750969005698 -s 0 -d 1 -p exp -e 100 -c 0 -i 14 -a 0 -x {0.0 1.0 14 ------- null}
h -t 0.263750969005698 -s 0 -d 1 -p exp -e 100 -c 0 -i 14 -a 0 -x {0.0 1.0 -1 ------- null}
r -t 0.265150969005698 -s 0 -d 1 -p exp -e 100 -c 0 -i 14 -a 0 -x {0.0 1.0 14 ------- null}
+ -t 0.271750969005698 -s 0 -d 1 -p exp -e 100 -c 0 -i 15 -a 0 -x {0.0 1.0 15 ------- null}
- -t 0.271750969005698 -s 0 -d 1 -p exp -e 100 -c 0 -i 15 -a 0 -x {0.0 1.0 15 ------- null}
h -t 0.271750969005698 -s 0 -d 1 -p exp -e 100 -c 0 -i 15 -a 0 -x {0.0 1.0 -1 ------- null}
r -t 0.273150969005698 -s 0 -d 1 -p exp -e 100 -c 0 -i 15 -a 0 -x {0.0 1.0 15 ------- null}
+ -t 0.279750969005698 -s 0 -d 1 -p exp -e 100 -c 0 -i 16 -a 0 -x {0.0 1.0 16 ------- null}
- -t 0.279750969005698 -s 0 -d 1 -p exp -e 100 -c 0 -i 16 -a 0 -x {0.0 1.0 16 ------- null}
h -t 0.279750969005698 -s 0 -d 1 -p exp -e 100 -c 0 -i 16 -a 0 -x {0.0 1.0 -1 ------- null}
r -t 0.281150969005698 -s 0 -d 1 -p exp -e 100 -c 0 -i 16 -a 0 -x {0.0 1.0 16 ------- null}
+ -t 0.287750969005698 -s 0 -d 1 -p exp -e 100 -c 0 -i 17 -a 0 -x {0.0 1.0 17 ------- null}
- -t 0.287750969005698 -s 0 -d 1 -p exp -e 100 -c 0 -i 17 -a 0 -x {0.0 1.0 17 ------- null}
h -t 0.287750969005698 -s 0 -d 1 -p exp -e 100 -c 0 -i 17 -a 0 -x {0.0 1.0 -1 ------- null}
r -t 0.289150969005698 -s 0 -d 1 -p exp -e 100 -c 0 -i 17 -a 0 -x {0.0 1.0 17 ------- null}
+ -t 0.295750969005698 -s 0 -d 1 -p exp -e 100 -c 0 -i 18 -a 0 -x {0.0 1.0 18 ------- null}
- -t 0.295750969005698 -s 0 -d 1 -p exp -e 100 -c 0 -i 18 -a 0 -x {0.0 1.0 18 ------- null}
h -t 0.295750969005698 -s 0 -d 1 -p exp -e 100 -c 0 -i 18 -a 0 -x {0.0 1.0 -1 ------- null}
r -t 0.297150969005698 -s 0 -d 1 -p exp -e 100 -c 0 -i 18 -a 0 -x {0.0 1.0 18 ------- null}
+ -t 0.303750969005698 -s 0 -d 1 -p exp -e 100 -c 0 -i 19 -a 0 -x {0.0 1.0 19 ------- null}
- -t 0.303750969005698 -s 0 -d 1 -p exp -e 100 -c 0 -i 19 -a 0 -x {0.0 1.0 19 ------- null}
h -t 0.303750969005698 -s 0 -d 1 -p exp -e 100 -c 0 -i 19 -a 0 -x {0.0 1.0 -1 ------- null}
r -t 0.305150969005698 -s 0 -d 1 -p exp -e 100 -c 0 -i 19 -a 0 -x {0.0 1.0 19 ------- null}
+ -t 0.311750969005698 -s 0 -d 1 -p exp -e 100 -c 0 -i 20 -a 0 -x {0.0 1.0 20 ------- null}
- -t 0.311750969005698 -s 0 -d 1 -p exp -e 100 -c 0 -i 20 -a 0 -x {0.0 1.0 20 ------- null}
h -t 0.311750969005698 -s 0 -d 1 -p exp -e 100 -c 0 -i 20 -a 0 -x {0.0 1.0 -1 ------- null}
r -t 0.313150969005698 -s 0 -d 1 -p exp -e 100 -c 0 -i 20 -a 0 -x {0.0 1.0 20 ------- null}
+ -t 0.328687955749562 -s 0 -d 1 -p exp -e 100 -c 0 -i 21 -a 0 -x {0.0 1.0 21 ------- null}
- -t 0.328687955749562 -s 0 -d 1 -p exp -e 100 -c 0 -i 21 -a 0 -x {0.0 1.0 21 ------- null}
h -t 0.328687955749562 -s 0 -d 1 -p exp -e 100 -c 0 -i 21 -a 0 -x {0.0 1.0 -1 ------- null}
r -t 0.330087955749562 -s 0 -d 1 -p exp -e 100 -c 0 -i 21 -a 0 -x {0.0 1.0 21 ------- null}
+ -t 0.336687955749562 -s 0 -d 1 -p exp -e 100 -c 0 -i 22 -a 0 -x {0.0 1.0 22 ------- null}
- -t 0.336687955749562 -s 0 -d 1 -p exp -e 100 -c 0 -i 22 -a 0 -x {0.0 1.0 22 ------- null}
h -t 0.336687955749562 -s 0 -d 1 -p exp -e 100 -c 0 -i 22 -a 0 -x {0.0 1.0 -1 ------- null}
r -t 0.338087955749562 -s 0 -d 1 -p exp -e 100 -c 0 -i 22 -a 0 -x {0.0 1.0 22 ------- null}
+ -t 0.344687955749562 -s 0 -d 1 -p exp -e 100 -c 0 -i 23 -a 0 -x {0.0 1.0 23 ------- null}
- -t 0.344687955749562 -s 0 -d 1 -p exp -e 100 -c 0 -i 23 -a 0 -x {0.0 1.0 23 ------- null}
h -t 0.344687955749562 -s 0 -d 1 -p exp -e 100 -c 0 -i 23 -a 0 -x {0.0 1.0 -1 ------- null}
r -t 0.346087955749562 -s 0 -d 1 -p exp -e 100 -c 0 -i 23 -a 0 -x {0.0 1.0 23 ------- null}
+ -t 0.352687955749562 -s 0 -d 1 -p exp -e 100 -c 0 -i 24 -a 0 -x {0.0 1.0 24 ------- null}
- -t 0.352687955749562 -s 0 -d 1 -p exp -e 100 -c 0 -i 24 -a 0 -x {0.0 1.0 24 ------- null}
h -t 0.352687955749562 -s 0 -d 1 -p exp -e 100 -c 0 -i 24 -a 0 -x {0.0 1.0 -1 ------- null}
r -t 0.354087955749562 -s 0 -d 1 -p exp -e 100 -c 0 -i 24 -a 0 -x {0.0 1.0 24 ------- null}
+ -t 0.360687955749562 -s 0 -d 1 -p exp -e 100 -c 0 -i 25 -a 0 -x {0.0 1.0 25 ------- null}
- -t 0.360687955749562 -s 0 -d 1 -p exp -e 100 -c 0 -i 25 -a 0 -x {0.0 1.0 25 ------- null}
h -t 0.360687955749562 -s 0 -d 1 -p exp -e 100 -c 0 -i 25 -a 0 -x {0.0 1.0 -1 ------- null}
r -t 0.362087955749562 -s 0 -d 1 -p exp -e 100 -c 0 -i 25 -a 0 -x {0.0 1.0 25 ------- null}
+ -t 0.368687955749562 -s 0 -d 1 -p exp -e 100 -c 0 -i 26 -a 0 -x {0.0 1.0 26 ------- null}
- -t 0.368687955749562 -s 0 -d 1 -p exp -e 100 -c 0 -i 26 -a 0 -x {0.0 1.0 26 ------- null}
h -t 0.368687955749562 -s 0 -d 1 -p exp -e 100 -c 0 -i 26 -a 0 -x {0.0 1.0 -1 ------- null}
r -t 0.370087955749562 -s 0 -d 1 -p exp -e 100 -c 0 -i 26 -a 0 -x {0.0 1.0 26 ------- null}
+ -t 0.376687955749562 -s 0 -d 1 -p exp -e 100 -c 0 -i 27 -a 0 -x {0.0 1.0 27 ------- null}
- -t 0.376687955749562 -s 0 -d 1 -p exp -e 100 -c 0 -i 27 -a 0 -x {0.0 1.0 27 ------- null}
h -t 0.376687955749562 -s 0 -d 1 -p exp -e 100 -c 0 -i 27 -a 0 -x {0.0 1.0 -1 ------- null}
r -t 0.378087955749562 -s 0 -d 1 -p exp -e 100 -c 0 -i 27 -a 0 -x {0.0 1.0 27 ------- null}
+ -t 0.542255172764462 -s 0 -d 1 -p exp -e 100 -c 0 -i 28 -a 0 -x {0.0 1.0 28 ------- null}
- -t 0.542255172764462 -s 0 -d 1 -p exp -e 100 -c 0 -i 28 -a 0 -x {0.0 1.0 28 ------- null}
h -t 0.542255172764462 -s 0 -d 1 -p exp -e 100 -c 0 -i 28 -a 0 -x {0.0 1.0 -1 ------- null}
r -t 0.543655172764462 -s 0 -d 1 -p exp -e 100 -c 0 -i 28 -a 0 -x {0.0 1.0 28 ------- null}
+ -t 0.550255172764462 -s 0 -d 1 -p exp -e 100 -c 0 -i 29 -a 0 -x {0.0 1.0 29 ------- null}
- -t 0.550255172764462 -s 0 -d 1 -p exp -e 100 -c 0 -i 29 -a 0 -x {0.0 1.0 29 ------- null}
h -t 0.550255172764462 -s 0 -d 1 -p exp -e 100 -c 0 -i 29 -a 0 -x {0.0 1.0 -1 ------- null}
r -t 0.551655172764462 -s 0 -d 1 -p exp -e 100 -c 0 -i 29 -a 0 -x {0.0 1.0 29 ------- null}
+ -t 0.558255172764462 -s 0 -d 1 -p exp -e 100 -c 0 -i 30 -a 0 -x {0.0 1.0 30 ------- null}
- -t 0.558255172764462 -s 0 -d 1 -p exp -e 100 -c 0 -i 30 -a 0 -x {0.0 1.0 30 ------- null}
h -t 0.558255172764462 -s 0 -d 1 -p exp -e 100 -c 0 -i 30 -a 0 -x {0.0 1.0 -1 ------- null}
r -t 0.559655172764462 -s 0 -d 1 -p exp -e 100 -c 0 -i 30 -a 0 -x {0.0 1.0 30 ------- null}
+ -t 0.566255172764462 -s 0 -d 1 -p exp -e 100 -c 0 -i 31 -a 0 -x {0.0 1.0 31 ------- null}
- -t 0.566255172764462 -s 0 -d 1 -p exp -e 100 -c 0 -i 31 -a 0 -x {0.0 1.0 31 ------- null}
h -t 0.566255172764462 -s 0 -d 1 -p exp -e 100 -c 0 -i 31 -a 0 -x {0.0 1.0 -1 ------- null}
r -t 0.567655172764462 -s 0 -d 1 -p exp -e 100 -c 0 -i 31 -a 0 -x {0.0 1.0 31 ------- null}
+ -t 0.574255172764462 -s 0 -d 1 -p exp -e 100 -c 0 -i 32 -a 0 -x {0.0 1.0 32 ------- null}
- -t 0.574255172764462 -s 0 -d 1 -p exp -e 100 -c 0 -i 32 -a 0 -x {0.0 1.0 32 ------- null}
h -t 0.574255172764462 -s 0 -d 1 -p exp -e 100 -c 0 -i 32 -a 0 -x {0.0 1.0 -1 ------- null}
r -t 0.575655172764462 -s 0 -d 1 -p exp -e 100 -c 0 -i 32 -a 0 -x {0.0 1.0 32 ------- null}
+ -t 0.582255172764462 -s 0 -d 1 -p exp -e 100 -c 0 -i 33 -a 0 -x {0.0 1.0 33 ------- null}
- -t 0.582255172764462 -s 0 -d 1 -p exp -e 100 -c 0 -i 33 -a 0 -x {0.0 1.0 33 ------- null}
h -t 0.582255172764462 -s 0 -d 1 -p exp -e 100 -c 0 -i 33 -a 0 -x {0.0 1.0 -1 ------- null}
r -t 0.583655172764462 -s 0 -d 1 -p exp -e 100 -c 0 -i 33 -a 0 -x {0.0 1.0 33 ------- null}
+ -t 0.590255172764462 -s 0 -d 1 -p exp -e 100 -c 0 -i 34 -a 0 -x {0.0 1.0 34 ------- null}
- -t 0.590255172764462 -s 0 -d 1 -p exp -e 100 -c 0 -i 34 -a 0 -x {0.0 1.0 34 ------- null}
h -t 0.590255172764462 -s 0 -d 1 -p exp -e 100 -c 0 -i 34 -a 0 -x {0.0 1.0 -1 ------- null}
r -t 0.591655172764462 -s 0 -d 1 -p exp -e 100 -c 0 -i 34 -a 0 -x {0.0 1.0 34 ------- null}
+ -t 0.598255172764462 -s 0 -d 1 -p exp -e 100 -c 0 -i 35 -a 0 -x {0.0 1.0 35 ------- null}
- -t 0.598255172764462 -s 0 -d 1 -p exp -e 100 -c 0 -i 35 -a 0 -x {0.0 1.0 35 ------- null}
h -t 0.598255172764462 -s 0 -d 1 -p exp -e 100 -c 0 -i 35 -a 0 -x {0.0 1.0 -1 ------- null}
r -t 0.599655172764462 -s 0 -d 1 -p exp -e 100 -c 0 -i 35 -a 0 -x {0.0 1.0 35 ------- null}
+ -t 0.606255172764462 -s 0 -d 1 -p exp -e 100 -c 0 -i 36 -a 0 -x {0.0 1.0 36 ------- null}
- -t 0.606255172764462 -s 0 -d 1 -p exp -e 100 -c 0 -i 36 -a 0 -x {0.0 1.0 36 ------- null}
h -t 0.606255172764462 -s 0 -d 1 -p exp -e 100 -c 0 -i 36 -a 0 -x {0.0 1.0 -1 ------- null}
r -t 0.607655172764462 -s 0 -d 1 -p exp -e 100 -c 0 -i 36 -a 0 -x {0.0 1.0 36 ------- null}
+ -t 0.614255172764462 -s 0 -d 1 -p exp -e 100 -c 0 -i 37 -a 0 -x {0.0 1.0 37 ------- null}
- -t 0.614255172764462 -s 0 -d 1 -p exp -e 100 -c 0 -i 37 -a 0 -x {0.0 1.0 37 ------- null}
h -t 0.614255172764462 -s 0 -d 1 -p exp -e 100 -c 0 -i 37 -a 0 -x {0.0 1.0 -1 ------- null}
r -t 0.615655172764462 -s 0 -d 1 -p exp -e 100 -c 0 -i 37 -a 0 -x {0.0 1.0 37 ------- null}
+ -t 0.622255172764462 -s 0 -d 1 -p exp -e 100 -c 0 -i 38 -a 0 -x {0.0 1.0 38 ------- null}
- -t 0.622255172764462 -s 0 -d 1 -p exp -e 100 -c 0 -i 38 -a 0 -x {0.0 1.0 38 ------- null}
h -t 0.622255172764462 -s 0 -d 1 -p exp -e 100 -c 0 -i 38 -a 0 -x {0.0 1.0 -1 ------- null}
r -t 0.623655172764462 -s 0 -d 1 -p exp -e 100 -c 0 -i 38 -a 0 -x {0.0 1.0 38 ------- null}
+ -t 0.73891718660327 -s 0 -d 1 -p exp -e 100 -c 0 -i 39 -a 0 -x {0.0 1.0 39 ------- null}
- -t 0.73891718660327 -s 0 -d 1 -p exp -e 100 -c 0 -i 39 -a 0 -x {0.0 1.0 39 ------- null}
h -t 0.73891718660327 -s 0 -d 1 -p exp -e 100 -c 0 -i 39 -a 0 -x {0.0 1.0 -1 ------- null}
r -t 0.74031718660327 -s 0 -d 1 -p exp -e 100 -c 0 -i 39 -a 0 -x {0.0 1.0 39 ------- null}
+ -t 0.74691718660327 -s 0 -d 1 -p exp -e 100 -c 0 -i 40 -a 0 -x {0.0 1.0 40 ------- null}
- -t 0.74691718660327 -s 0 -d 1 -p exp -e 100 -c 0 -i 40 -a 0 -x {0.0 1.0 40 ------- null}
h -t 0.74691718660327 -s 0 -d 1 -p exp -e 100 -c 0 -i 40 -a 0 -x {0.0 1.0 -1 ------- null}
r -t 0.74831718660327 -s 0 -d 1 -p exp -e 100 -c 0 -i 40 -a 0 -x {0.0 1.0 40 ------- null}
+ -t 0.75491718660327 -s 0 -d 1 -p exp -e 100 -c 0 -i 41 -a 0 -x {0.0 1.0 41 ------- null}
- -t 0.75491718660327 -s 0 -d 1 -p exp -e 100 -c 0 -i 41 -a 0 -x {0.0 1.0 41 ------- null}
h -t 0.75491718660327 -s 0 -d 1 -p exp -e 100 -c 0 -i 41 -a 0 -x {0.0 1.0 -1 ------- null}
r -t 0.75631718660327 -s 0 -d 1 -p exp -e 100 -c 0 -i 41 -a 0 -x {0.0 1.0 41 ------- null}
+ -t 0.805858773395692 -s 0 -d 1 -p exp -e 100 -c 0 -i 42 -a 0 -x {0.0 1.0 42 ------- null}
- -t 0.805858773395692 -s 0 -d 1 -p exp -e 100 -c 0 -i 42 -a 0 -x {0.0 1.0 42 ------- null}
h -t 0.805858773395692 -s 0 -d 1 -p exp -e 100 -c 0 -i 42 -a 0 -x {0.0 1.0 -1 ------- null}
r -t 0.807258773395692 -s 0 -d 1 -p exp -e 100 -c 0 -i 42 -a 0 -x {0.0 1.0 42 ------- null}
+ -t 0.932007993924965 -s 0 -d 1 -p exp -e 100 -c 0 -i 43 -a 0 -x {0.0 1.0 43 ------- null}
- -t 0.932007993924965 -s 0 -d 1 -p exp -e 100 -c 0 -i 43 -a 0 -x {0.0 1.0 43 ------- null}
h -t 0.932007993924965 -s 0 -d 1 -p exp -e 100 -c 0 -i 43 -a 0 -x {0.0 1.0 -1 ------- null}
r -t 0.933407993924965 -s 0 -d 1 -p exp -e 100 -c 0 -i 43 -a 0 -x {0.0 1.0 43 ------- null}
+ -t 0.940007993924965 -s 0 -d 1 -p exp -e 100 -c 0 -i 44 -a 0 -x {0.0 1.0 44 ------- null}
- -t 0.940007993924965 -s 0 -d 1 -p exp -e 100 -c 0 -i 44 -a 0 -x {0.0 1.0 44 ------- null}
h -t 0.940007993924965 -s 0 -d 1 -p exp -e 100 -c 0 -i 44 -a 0 -x {0.0 1.0 -1 ------- null}
r -t 0.941407993924965 -s 0 -d 1 -p exp -e 100 -c 0 -i 44 -a 0 -x {0.0 1.0 44 ------- null}
+ -t 0.948007993924965 -s 0 -d 1 -p exp -e 100 -c 0 -i 45 -a 0 -x {0.0 1.0 45 ------- null}
- -t 0.948007993924965 -s 0 -d 1 -p exp -e 100 -c 0 -i 45 -a 0 -x {0.0 1.0 45 ------- null}
h -t 0.948007993924965 -s 0 -d 1 -p exp -e 100 -c 0 -i 45 -a 0 -x {0.0 1.0 -1 ------- null}
r -t 0.949407993924965 -s 0 -d 1 -p exp -e 100 -c 0 -i 45 -a 0 -x {0.0 1.0 45 ------- null}
+ -t 0.956007993924965 -s 0 -d 1 -p exp -e 100 -c 0 -i 46 -a 0 -x {0.0 1.0 46 ------- null}
- -t 0.956007993924965 -s 0 -d 1 -p exp -e 100 -c 0 -i 46 -a 0 -x {0.0 1.0 46 ------- null}
h -t 0.956007993924965 -s 0 -d 1 -p exp -e 100 -c 0 -i 46 -a 0 -x {0.0 1.0 -1 ------- null}
r -t 0.957407993924965 -s 0 -d 1 -p exp -e 100 -c 0 -i 46 -a 0 -x {0.0 1.0 46 ------- null}
+ -t 0.964007993924965 -s 0 -d 1 -p exp -e 100 -c 0 -i 47 -a 0 -x {0.0 1.0 47 ------- null}
- -t 0.964007993924965 -s 0 -d 1 -p exp -e 100 -c 0 -i 47 -a 0 -x {0.0 1.0 47 ------- null}
h -t 0.964007993924965 -s 0 -d 1 -p exp -e 100 -c 0 -i 47 -a 0 -x {0.0 1.0 -1 ------- null}
r -t 0.965407993924965 -s 0 -d 1 -p exp -e 100 -c 0 -i 47 -a 0 -x {0.0 1.0 47 ------- null}
+ -t 0.972007993924965 -s 0 -d 1 -p exp -e 100 -c 0 -i 48 -a 0 -x {0.0 1.0 48 ------- null}
- -t 0.972007993924965 -s 0 -d 1 -p exp -e 100 -c 0 -i 48 -a 0 -x {0.0 1.0 48 ------- null}
h -t 0.972007993924965 -s 0 -d 1 -p exp -e 100 -c 0 -i 48 -a 0 -x {0.0 1.0 -1 ------- null}
r -t 0.973407993924965 -s 0 -d 1 -p exp -e 100 -c 0 -i 48 -a 0 -x {0.0 1.0 48 ------- null}
+ -t 0.980007993924965 -s 0 -d 1 -p exp -e 100 -c 0 -i 49 -a 0 -x {0.0 1.0 49 ------- null}
- -t 0.980007993924965 -s 0 -d 1 -p exp -e 100 -c 0 -i 49 -a 0 -x {0.0 1.0 49 ------- null}
h -t 0.980007993924965 -s 0 -d 1 -p exp -e 100 -c 0 -i 49 -a 0 -x {0.0 1.0 -1 ------- null}
r -t 0.981407993924965 -s 0 -d 1 -p exp -e 100 -c 0 -i 49 -a 0 -x {0.0 1.0 49 ------- null}
+ -t 0.988007993924965 -s 0 -d 1 -p exp -e 100 -c 0 -i 50 -a 0 -x {0.0 1.0 50 ------- null}
- -t 0.988007993924965 -s 0 -d 1 -p exp -e 100 -c 0 -i 50 -a 0 -x {0.0 1.0 50 ------- null}
h -t 0.988007993924965 -s 0 -d 1 -p exp -e 100 -c 0 -i 50 -a 0 -x {0.0 1.0 -1 ------- null}
r -t 0.989407993924965 -s 0 -d 1 -p exp -e 100 -c 0 -i 50 -a 0 -x {0.0 1.0 50 ------- null}
+ -t 0.996007993924965 -s 0 -d 1 -p exp -e 100 -c 0 -i 51 -a 0 -x {0.0 1.0 51 ------- null}
- -t 0.996007993924965 -s 0 -d 1 -p exp -e 100 -c 0 -i 51 -a 0 -x {0.0 1.0 51 ------- null}
h -t 0.996007993924965 -s 0 -d 1 -p exp -e 100 -c 0 -i 51 -a 0 -x {0.0 1.0 -1 ------- null}
r -t 0.997407993924965 -s 0 -d 1 -p exp -e 100 -c 0 -i 51 -a 0 -x {0.0 1.0 51 ------- null}
+ -t 1 -s 2 -d 3 -p cbr -e 50 -c 0 -i 52 -a 0 -x {2.0 3.0 0 ------- null}
- -t 1 -s 2 -d 3 -p cbr -e 50 -c 0 -i 52 -a 0 -x {2.0 3.0 0 ------- null}
h -t 1 -s 2 -d 3 -p cbr -e 50 -c 0 -i 52 -a 0 -x {2.0 3.0 -1 ------- null}
v -t 1 -e sim_annotation 1 2 Time: 1.0 CBR Traffic from Node 2 to Node 3 ..
r -t 1.0104 -s 2 -d 3 -p cbr -e 50 -c 0 -i 52 -a 0 -x {2.0 3.0 0 ------- null}
+ -t 2 -s 1 -d 6 -p tcp -e 40 -c 0 -i 53 -a 0 -x {1.1 6.0 0 ------- null}
- -t 2 -s 1 -d 6 -p tcp -e 40 -c 0 -i 53 -a 0 -x {1.1 6.0 0 ------- null}
h -t 2 -s 1 -d 6 -p tcp -e 40 -c 0 -i 53 -a 0 -x {1.1 6.0 -1 ------- null}
v -t 2 -e sim_annotation 2 3 Time: 2.0 FTP Traffic from Node 1 to Node 6..
r -t 2.01010666666667 -s 1 -d 6 -p tcp -e 40 -c 0 -i 53 -a 0 -x {1.1 6.0 0 ------- null}
+ -t 2.01010666666667 -s 6 -d 1 -p ack -e 40 -c 0 -i 54 -a 0 -x {6.0 1.1 0 ------- null}
- -t 2.01010666666667 -s 6 -d 1 -p ack -e 40 -c 0 -i 54 -a 0 -x {6.0 1.1 0 ------- null}
h -t 2.01010666666667 -s 6 -d 1 -p ack -e 40 -c 0 -i 54 -a 0 -x {6.0 1.1 -1 ------- null}
r -t 2.02021333333333 -s 6 -d 1 -p ack -e 40 -c 0 -i 54 -a 0 -x {6.0 1.1 0 ------- null}
+ -t 2.02021333333333 -s 1 -d 6 -p tcp -e 1040 -c 0 -i 55 -a 0 -x {1.1 6.0 1 ------- null}
- -t 2.02021333333333 -s 1 -d 6 -p tcp -e 1040 -c 0 -i 55 -a 0 -x {1.1 6.0 1 ------- null}
h -t 2.02021333333333 -s 1 -d 6 -p tcp -e 1040 -c 0 -i 55 -a 0 -x {1.1 6.0 -1 ------- null}
+ -t 2.02021333333333 -s 1 -d 6 -p tcp -e 1040 -c 0 -i 56 -a 0 -x {1.1 6.0 2 ------- null}
- -t 2.02298666666667 -s 1 -d 6 -p tcp -e 1040 -c 0 -i 56 -a 0 -x {1.1 6.0 2 ------- null}
h -t 2.02298666666667 -s 1 -d 6 -p tcp -e 1040 -c 0 -i 56 -a 0 -x {1.1 6.0 -1 ------- null}
r -t 2.03298666666667 -s 1 -d 6 -p tcp -e 1040 -c 0 -i 55 -a 0 -x {1.1 6.0 1 ------- null}
+ -t 2.03298666666667 -s 6 -d 1 -p ack -e 40 -c 0 -i 57 -a 0 -x {6.0 1.1 1 ------- null}
- -t 2.03298666666667 -s 6 -d 1 -p ack -e 40 -c 0 -i 57 -a 0 -x {6.0 1.1 1 ------- null}
h -t 2.03298666666667 -s 6 -d 1 -p ack -e 40 -c 0 -i 57 -a 0 -x {6.0 1.1 -1 ------- null}
r -t 2.03576 -s 1 -d 6 -p tcp -e 1040 -c 0 -i 56 -a 0 -x {1.1 6.0 2 ------- null}
+ -t 2.03576 -s 6 -d 1 -p ack -e 40 -c 0 -i 58 -a 0 -x {6.0 1.1 2 ------- null}
- -t 2.03576 -s 6 -d 1 -p ack -e 40 -c 0 -i 58 -a 0 -x {6.0 1.1 2 ------- null}
h -t 2.03576 -s 6 -d 1 -p ack -e 40 -c 0 -i 58 -a 0 -x {6.0 1.1 -1 ------- null}
r -t 2.04309333333333 -s 6 -d 1 -p ack -e 40 -c 0 -i 57 -a 0 -x {6.0 1.1 1 ------- null}
+ -t 2.04309333333333 -s 1 -d 6 -p tcp -e 1040 -c 0 -i 59 -a 0 -x {1.1 6.0 3 ------- null}
- -t 2.04309333333333 -s 1 -d 6 -p tcp -e 1040 -c 0 -i 59 -a 0 -x {1.1 6.0 3 ------- null}
h -t 2.04309333333333 -s 1 -d 6 -p tcp -e 1040 -c 0 -i 59 -a 0 -x {1.1 6.0 -1 ------- null}
+ -t 2.04309333333333 -s 1 -d 6 -p tcp -e 1040 -c 0 -i 60 -a 0 -x {1.1 6.0 4 ------- null}
r -t 2.04586666666667 -s 6 -d 1 -p ack -e 40 -c 0 -i 58 -a 0 -x {6.0 1.1 2 ------- null}
+ -t 2.04586666666667 -s 1 -d 6 -p tcp -e 1040 -c 0 -i 61 -a 0 -x {1.1 6.0 5 ------- null}
+ -t 2.04586666666667 -s 1 -d 6 -p tcp -e 1040 -c 0 -i 62 -a 0 -x {1.1 6.0 6 ------- null}
- -t 2.04586666666667 -s 1 -d 6 -p tcp -e 1040 -c 0 -i 60 -a 0 -x {1.1 6.0 4 ------- null}
h -t 2.04586666666667 -s 1 -d 6 -p tcp -e 1040 -c 0 -i 60 -a 0 -x {1.1 6.0 -1 ------- null}
- -t 2.04864 -s 1 -d 6 -p tcp -e 1040 -c 0 -i 61 -a 0 -x {1.1 6.0 5 ------- null}
h -t 2.04864 -s 1 -d 6 -p tcp -e 1040 -c 0 -i 61 -a 0 -x {1.1 6.0 -1 ------- null}
- -t 2.05141333333333 -s 1 -d 6 -p tcp -e 1040 -c 0 -i 62 -a 0 -x {1.1 6.0 6 ------- null}
h -t 2.05141333333333 -s 1 -d 6 -p tcp -e 1040 -c 0 -i 62 -a 0 -x {1.1 6.0 -1 ------- null}
r -t 2.05586666666667 -s 1 -d 6 -p tcp -e 1040 -c 0 -i 59 -a 0 -x {1.1 6.0 3 ------- null}
+ -t 2.05586666666667 -s 6 -d 1 -p ack -e 40 -c 0 -i 63 -a 0 -x {6.0 1.1 3 ------- null}
- -t 2.05586666666667 -s 6 -d 1 -p ack -e 40 -c 0 -i 63 -a 0 -x {6.0 1.1 3 ------- null}
h -t 2.05586666666667 -s 6 -d 1 -p ack -e 40 -c 0 -i 63 -a 0 -x {6.0 1.1 -1 ------- null}
r -t 2.05864 -s 1 -d 6 -p tcp -e 1040 -c 0 -i 60 -a 0 -x {1.1 6.0 4 ------- null}
+ -t 2.05864 -s 6 -d 1 -p ack -e 40 -c 0 -i 64 -a 0 -x {6.0 1.1 4 ------- null}
- -t 2.05864 -s 6 -d 1 -p ack -e 40 -c 0 -i 64 -a 0 -x {6.0 1.1 4 ------- null}
h -t 2.05864 -s 6 -d 1 -p ack -e 40 -c 0 -i 64 -a 0 -x {6.0 1.1 -1 ------- null}
r -t 2.06141333333333 -s 1 -d 6 -p tcp -e 1040 -c 0 -i 61 -a 0 -x {1.1 6.0 5 ------- null}
+ -t 2.06141333333333 -s 6 -d 1 -p ack -e 40 -c 0 -i 65 -a 0 -x {6.0 1.1 5 ------- null}
- -t 2.06141333333333 -s 6 -d 1 -p ack -e 40 -c 0 -i 65 -a 0 -x {6.0 1.1 5 ------- null}
h -t 2.06141333333333 -s 6 -d 1 -p ack -e 40 -c 0 -i 65 -a 0 -x {6.0 1.1 -1 ------- null}
r -t 2.06418666666667 -s 1 -d 6 -p tcp -e 1040 -c 0 -i 62 -a 0 -x {1.1 6.0 6 ------- null}
+ -t 2.06418666666667 -s 6 -d 1 -p ack -e 40 -c 0 -i 66 -a 0 -x {6.0 1.1 6 ------- null}
- -t 2.06418666666667 -s 6 -d 1 -p ack -e 40 -c 0 -i 66 -a 0 -x {6.0 1.1 6 ------- null}
h -t 2.06418666666667 -s 6 -d 1 -p ack -e 40 -c 0 -i 66 -a 0 -x {6.0 1.1 -1 ------- null}
r -t 2.06597333333333 -s 6 -d 1 -p ack -e 40 -c 0 -i 63 -a 0 -x {6.0 1.1 3 ------- null}
+ -t 2.06597333333333 -s 1 -d 6 -p tcp -e 1040 -c 0 -i 67 -a 0 -x {1.1 6.0 7 ------- null}
- -t 2.06597333333333 -s 1 -d 6 -p tcp -e 1040 -c 0 -i 67 -a 0 -x {1.1 6.0 7 ------- null}
h -t 2.06597333333333 -s 1 -d 6 -p tcp -e 1040 -c 0 -i 67 -a 0 -x {1.1 6.0 -1 ------- null}
+ -t 2.06597333333333 -s 1 -d 6 -p tcp -e 1040 -c 0 -i 68 -a 0 -x {1.1 6.0 8 ------- null}
r -t 2.06874666666667 -s 6 -d 1 -p ack -e 40 -c 0 -i 64 -a 0 -x {6.0 1.1 4 ------- null}
+ -t 2.06874666666667 -s 1 -d 6 -p tcp -e 1040 -c 0 -i 69 -a 0 -x {1.1 6.0 9 ------- null}
+ -t 2.06874666666667 -s 1 -d 6 -p tcp -e 1040 -c 0 -i 70 -a 0 -x {1.1 6.0 10 ------- null}
- -t 2.06874666666667 -s 1 -d 6 -p tcp -e 1040 -c 0 -i 68 -a 0 -x {1.1 6.0 8 ------- null}
h -t 2.06874666666667 -s 1 -d 6 -p tcp -e 1040 -c 0 -i 68 -a 0 -x {1.1 6.0 -1 ------- null}
r -t 2.07152 -s 6 -d 1 -p ack -e 40 -c 0 -i 65 -a 0 -x {6.0 1.1 5 ------- null}
+ -t 2.07152 -s 1 -d 6 -p tcp -e 1040 -c 0 -i 71 -a 0 -x {1.1 6.0 11 ------- null}
+ -t 2.07152 -s 1 -d 6 -p tcp -e 1040 -c 0 -i 72 -a 0 -x {1.1 6.0 12 ------- null}
- -t 2.07152 -s 1 -d 6 -p tcp -e 1040 -c 0 -i 69 -a 0 -x {1.1 6.0 9 ------- null}
h -t 2.07152 -s 1 -d 6 -p tcp -e 1040 -c 0 -i 69 -a 0 -x {1.1 6.0 -1 ------- null}
r -t 2.07429333333333 -s 6 -d 1 -p ack -e 40 -c 0 -i 66 -a 0 -x {6.0 1.1 6 ------- null}
+ -t 2.07429333333333 -s 1 -d 6 -p tcp -e 1040 -c 0 -i 73 -a 0 -x {1.1 6.0 13 ------- null}
+ -t 2.07429333333333 -s 1 -d 6 -p tcp -e 1040 -c 0 -i 74 -a 0 -x {1.1 6.0 14 ------- null}
- -t 2.07429333333333 -s 1 -d 6 -p tcp -e 1040 -c 0 -i 70 -a 0 -x {1.1 6.0 10 ------- null}
h -t 2.07429333333333 -s 1 -d 6 -p tcp -e 1040 -c 0 -i 70 -a 0 -x {1.1 6.0 -1 ------- null}
- -t 2.07706666666667 -s 1 -d 6 -p tcp -e 1040 -c 0 -i 71 -a 0 -x {1.1 6.0 11 ------- null}
h -t 2.07706666666667 -s 1 -d 6 -p tcp -e 1040 -c 0 -i 71 -a 0 -x {1.1 6.0 -1 ------- null}
r -t 2.07874666666667 -s 1 -d 6 -p tcp -e 1040 -c 0 -i 67 -a 0 -x {1.1 6.0 7 ------- null}
+ -t 2.07874666666667 -s 6 -d 1 -p ack -e 40 -c 0 -i 75 -a 0 -x {6.0 1.1 7 ------- null}
- -t 2.07874666666667 -s 6 -d 1 -p ack -e 40 -c 0 -i 75 -a 0 -x {6.0 1.1 7 ------- null}
h -t 2.07874666666667 -s 6 -d 1 -p ack -e 40 -c 0 -i 75 -a 0 -x {6.0 1.1 -1 ------- null}
- -t 2.07984 -s 1 -d 6 -p tcp -e 1040 -c 0 -i 72 -a 0 -x {1.1 6.0 12 ------- null}
h -t 2.07984 -s 1 -d 6 -p tcp -e 1040 -c 0 -i 72 -a 0 -x {1.1 6.0 -1 ------- null}
r -t 2.08152 -s 1 -d 6 -p tcp -e 1040 -c 0 -i 68 -a 0 -x {1.1 6.0 8 ------- null}
+ -t 2.08152 -s 6 -d 1 -p ack -e 40 -c 0 -i 76 -a 0 -x {6.0 1.1 8 ------- null}
- -t 2.08152 -s 6 -d 1 -p ack -e 40 -c 0 -i 76 -a 0 -x {6.0 1.1 8 ------- null}
h -t 2.08152 -s 6 -d 1 -p ack -e 40 -c 0 -i 76 -a 0 -x {6.0 1.1 -1 ------- null}
- -t 2.08261333333333 -s 1 -d 6 -p tcp -e 1040 -c 0 -i 73 -a 0 -x {1.1 6.0 13 ------- null}
h -t 2.08261333333333 -s 1 -d 6 -p tcp -e 1040 -c 0 -i 73 -a 0 -x {1.1 6.0 -1 ------- null}
r -t 2.08429333333333 -s 1 -d 6 -p tcp -e 1040 -c 0 -i 69 -a 0 -x {1.1 6.0 9 ------- null}
+ -t 2.08429333333333 -s 6 -d 1 -p ack -e 40 -c 0 -i 77 -a 0 -x {6.0 1.1 9 ------- null}
- -t 2.08429333333333 -s 6 -d 1 -p ack -e 40 -c 0 -i 77 -a 0 -x {6.0 1.1 9 ------- null}
h -t 2.08429333333333 -s 6 -d 1 -p ack -e 40 -c 0 -i 77 -a 0 -x {6.0 1.1 -1 ------- null}
- -t 2.08538666666667 -s 1 -d 6 -p tcp -e 1040 -c 0 -i 74 -a 0 -x {1.1 6.0 14 ------- null}
h -t 2.08538666666667 -s 1 -d 6 -p tcp -e 1040 -c 0 -i 74 -a 0 -x {1.1 6.0 -1 ------- null}
r -t 2.08706666666667 -s 1 -d 6 -p tcp -e 1040 -c 0 -i 70 -a 0 -x {1.1 6.0 10 ------- null}
+ -t 2.08706666666667 -s 6 -d 1 -p ack -e 40 -c 0 -i 78 -a 0 -x {6.0 1.1 10 ------- null}
- -t 2.08706666666667 -s 6 -d 1 -p ack -e 40 -c 0 -i 78 -a 0 -x {6.0 1.1 10 ------- null}
h -t 2.08706666666667 -s 6 -d 1 -p ack -e 40 -c 0 -i 78 -a 0 -x {6.0 1.1 -1 ------- null}
r -t 2.08885333333333 -s 6 -d 1 -p ack -e 40 -c 0 -i 75 -a 0 -x {6.0 1.1 7 ------- null}
+ -t 2.08885333333333 -s 1 -d 6 -p tcp -e 1040 -c 0 -i 79 -a 0 -x {1.1 6.0 15 ------- null}
- -t 2.08885333333333 -s 1 -d 6 -p tcp -e 1040 -c 0 -i 79 -a 0 -x {1.1 6.0 15 ------- null}
h -t 2.08885333333333 -s 1 -d 6 -p tcp -e 1040 -c 0 -i 79 -a 0 -x {1.1 6.0 -1 ------- null}
+ -t 2.08885333333333 -s 1 -d 6 -p tcp -e 1040 -c 0 -i 80 -a 0 -x {1.1 6.0 16 ------- null}
r -t 2.08984 -s 1 -d 6 -p tcp -e 1040 -c 0 -i 71 -a 0 -x {1.1 6.0 11 ------- null}
+ -t 2.08984 -s 6 -d 1 -p ack -e 40 -c 0 -i 81 -a 0 -x {6.0 1.1 11 ------- null}